/*--------------------------------*- C++ -*----------------------------------*\
  =========                 |
  \\      /  F ield         | OpenFOAM: The Open Source CFD Toolbox
   \\    /   O peration     | Website:  https://openfoam.org
    \\  /    A nd           | Version:  12
     \\/     M anipulation  |
\*---------------------------------------------------------------------------*/
FoamFile
{
    format      ascii;
    class       volScalarField;
    location    "100";
    object      k;
}
// * * * * * * * * * * * * * * * * * * * * * * * * * * * * * * * * * * * * * //

dimensions      [0 2 -2 0 0 0 0];

internalField   nonuniform List<scalar> 
20000
(
0.00121534
0.000457038
0.000507989
0.000660509
0.000811237
0.000858353
0.000973853
0.00103234
0.00114874
0.00118914
0.00126744
0.00129435
0.00134286
0.00136637
0.00139829
0.00142318
0.00144205
0.00146176
0.001472
0.00148754
0.00149504
0.00150525
0.00150937
0.00151612
0.00151897
0.00152252
0.00152445
0.00152738
0.00152832
0.00152974
0.00153025
0.00152983
0.00152662
0.00152371
0.00151954
0.00151221
0.00150569
0.00149453
0.00148472
0.00147434
0.00146435
0.00145232
0.00144158
0.00143063
0.00142235
0.0014136
0.00140702
0.00140094
0.0013935
0.00138607
0.00137888
0.00137207
0.00136622
0.00136053
0.00135585
0.00135154
0.00134806
0.00134463
0.00134198
0.00133992
0.00133885
0.00133804
0.00133697
0.00133616
0.00133611
0.00133605
0.00133664
0.00133725
0.00133717
0.00133733
0.00133677
0.00133511
0.00133325
0.00132905
0.00132461
0.00132293
0.00132206
0.00131952
0.00131384
0.00130962
0.00130027
0.00129529
0.00129216
0.00128859
0.00128284
0.00127591
0.00127416
0.0012706
0.0012679
0.00126627
0.00126238
0.00125833
0.00125364
0.001252
0.00125051
0.00124731
0.0012434
0.00123941
0.00123593
0.00123417
0.00123315
0.00123075
0.00122736
0.00122559
0.00122454
0.00122269
0.00122198
0.00122033
0.00121794
0.00121608
0.00121514
0.001212
0.00120946
0.00120778
0.00120585
0.00120585
0.00120461
0.00120334
0.00120079
0.00119841
0.00119644
0.00119548
0.00119339
0.001193
0.00119212
0.00119145
0.00118992
0.00118931
0.00118859
0.00118739
0.00118678
0.00118674
0.00118702
0.00118654
0.00118586
0.00118457
0.00118497
0.00118561
0.00118496
0.00118508
0.00118476
0.00118528
0.00118529
0.00118389
0.00118459
0.0011844
0.00118416
0.00118415
0.00118411
0.00118431
0.00118434
0.00118399
0.00118379
0.0011831
0.00118326
0.00118239
0.00118205
0.0011811
0.00118146
0.00118121
0.00118148
0.0011815
0.0011821
0.0011824
0.0011819
0.00118125
0.0011812
0.00118024
0.00117971
0.0011814
0.00118102
0.00118044
0.0011807
0.0011812
0.00118096
0.00118107
0.00118098
0.00118137
0.00118187
0.00118017
0.00118042
0.00118103
0.00118049
0.00118168
0.00118354
0.00118287
0.0011816
0.00118192
0.00118235
0.00118186
0.00118098
0.00118083
0.00118021
0.0011799
0.00117844
0.00117869
0.00117962
0.00117809
0.00117894
0.00117954
0.0030949
0.00342488
0.00445138
0.00567912
0.00678566
0.00709341
0.0078934
0.00826687
0.00902522
0.0092595
0.00973322
0.00987644
0.0101519
0.0102719
0.0104397
0.0105696
0.0106578
0.0107558
0.0107949
0.0108677
0.0108926
0.0109362
0.010943
0.0109671
0.0109688
0.0109752
0.0109723
0.0109766
0.0109699
0.0109667
0.0109592
0.0109478
0.0109211
0.0108953
0.0108639
0.0108147
0.0107713
0.0107013
0.0106381
0.0105714
0.0105078
0.0104324
0.0103635
0.0102934
0.0102395
0.0101832
0.0101404
0.0101019
0.0100547
0.0100081
0.00996205
0.00991787
0.00987896
0.00984089
0.00980864
0.0097785
0.00975413
0.00972941
0.00970995
0.00969346
0.00968351
0.00967608
0.00966756
0.00966012
0.00965801
0.00965523
0.0096567
0.0096597
0.00965793
0.0096589
0.00965522
0.00964602
0.00963563
0.00961147
0.00958549
0.00957361
0.00956778
0.00955276
0.00951873
0.00949432
0.00943794
0.00940459
0.00938323
0.00936033
0.00932493
0.00928031
0.00926856
0.00924619
0.00922791
0.00921702
0.00919245
0.00916602
0.0091358
0.00912471
0.00911478
0.0090942
0.00906967
0.00904463
0.00902185
0.00901038
0.00900339
0.00898653
0.00896505
0.00895174
0.00894404
0.00893267
0.00892823
0.00891925
0.00890482
0.00889244
0.00888629
0.00886666
0.00884904
0.0088362
0.0088245
0.00882504
0.0088188
0.00881163
0.00879565
0.00877988
0.00876668
0.00875978
0.00874488
0.00874192
0.00873586
0.00873205
0.00872135
0.00871629
0.00871142
0.00870305
0.00869825
0.00869647
0.00869747
0.008696
0.00869193
0.00868251
0.0086848
0.00868765
0.00868386
0.00868501
0.00868192
0.00868521
0.00868582
0.00867807
0.00868202
0.00867997
0.00867778
0.00867884
0.0086782
0.00867986
0.00867966
0.00867723
0.00867637
0.00867145
0.00867335
0.00866763
0.00866572
0.0086594
0.00866059
0.00865893
0.00866002
0.00865981
0.00866435
0.00866575
0.00866413
0.00865969
0.00865855
0.00865305
0.00864923
0.00865896
0.00865692
0.00865325
0.00865473
0.00865757
0.00865673
0.00865615
0.00865555
0.00865787
0.0086616
0.00865177
0.00865313
0.00865692
0.00865361
0.0086615
0.00867195
0.0086684
0.00865975
0.0086619
0.00866527
0.00866265
0.00865786
0.00865663
0.00865313
0.00865115
0.00864076
0.00864205
0.00864723
0.0086389
0.00864328
0.00864582
0.00355422
0.00360553
0.00411049
0.00527354
0.00687544
0.00791891
0.00946263
0.0103949
0.0115713
0.01219
0.0129582
0.0133581
0.0138367
0.0141321
0.0144378
0.014693
0.0148752
0.0150641
0.0151691
0.0153073
0.0153803
0.0154718
0.0155109
0.0155732
0.0155987
0.0156301
0.015643
0.0156677
0.0156726
0.0156839
0.0156876
0.0156882
0.0156694
0.0156498
0.0156228
0.015574
0.0155314
0.0154548
0.0153826
0.0153049
0.0152294
0.0151362
0.0150504
0.0149618
0.0148934
0.0148217
0.0147688
0.0147216
0.0146607
0.0146032
0.014544
0.0144875
0.0144367
0.0143875
0.0143451
0.0143057
0.014273
0.0142402
0.0142145
0.014193
0.0141797
0.0141702
0.0141613
0.0141529
0.0141522
0.0141505
0.0141547
0.0141614
0.0141617
0.0141683
0.014167
0.0141611
0.014152
0.0141276
0.0140975
0.0140847
0.0140802
0.0140626
0.0140231
0.0139946
0.0139248
0.0138807
0.0138537
0.0138251
0.0137776
0.0137198
0.0137056
0.0136769
0.0136527
0.0136385
0.0136048
0.0135698
0.0135307
0.013517
0.013503
0.0134753
0.013444
0.0134098
0.0133799
0.013365
0.0133547
0.0133315
0.0133053
0.0132855
0.0132771
0.0132659
0.0132619
0.0132544
0.0132366
0.0132207
0.0132126
0.0131896
0.0131631
0.0131422
0.0131263
0.0131252
0.0131193
0.0131103
0.0130901
0.0130711
0.0130524
0.0130434
0.0130284
0.0130189
0.0130095
0.0130039
0.012988
0.0129833
0.0129767
0.0129664
0.0129595
0.0129566
0.0129607
0.0129572
0.0129489
0.0129387
0.0129424
0.0129425
0.0129371
0.0129376
0.0129331
0.0129392
0.0129399
0.0129302
0.0129355
0.0129329
0.0129299
0.0129313
0.0129319
0.0129373
0.0129369
0.0129344
0.0129306
0.012924
0.0129274
0.0129213
0.0129203
0.0129096
0.0129091
0.0129091
0.0129114
0.0129115
0.0129176
0.0129181
0.0129157
0.0129125
0.012914
0.0129041
0.0129002
0.0129099
0.012908
0.0129046
0.0129054
0.0129081
0.0129091
0.0129085
0.0129045
0.0129087
0.0129107
0.0128989
0.0129036
0.0129077
0.0129032
0.0129187
0.0129244
0.0129233
0.0129123
0.0129165
0.0129209
0.0129153
0.0129089
0.0129077
0.0129025
0.0129011
0.0128892
0.0128928
0.0128975
0.0128859
0.0128942
0.012892
0.003763
0.00368829
0.00375631
0.00415159
0.00513564
0.00610799
0.00762412
0.00880065
0.0102532
0.011255
0.0123557
0.0131172
0.0138769
0.0144537
0.0149793
0.0154333
0.0157774
0.0161151
0.0163433
0.0165919
0.0167584
0.0169358
0.0170468
0.017176
0.0172583
0.0173406
0.0173966
0.0174621
0.017502
0.0175471
0.0175808
0.0176146
0.0176172
0.0176223
0.0176168
0.017586
0.0175586
0.0174949
0.0174291
0.0173544
0.0172807
0.0171844
0.0170942
0.0169998
0.0169267
0.0168498
0.0167952
0.0167467
0.0166803
0.0166217
0.0165583
0.0164982
0.0164427
0.01639
0.0163429
0.0163
0.0162637
0.0162272
0.0161991
0.016176
0.0161617
0.0161521
0.0161454
0.0161392
0.016142
0.0161425
0.0161514
0.0161641
0.0161684
0.0161833
0.016186
0.0161867
0.0161829
0.0161647
0.0161374
0.0161274
0.0161262
0.0161101
0.0160731
0.0160464
0.015974
0.0159253
0.0158964
0.0158657
0.0158114
0.0157476
0.0157346
0.0157026
0.0156754
0.0156591
0.0156193
0.0155793
0.0155362
0.0155226
0.0155053
0.0154734
0.0154387
0.0154
0.0153677
0.0153531
0.0153406
0.0153137
0.0152863
0.0152616
0.0152525
0.0152434
0.01524
0.0152363
0.0152189
0.0152042
0.0151939
0.015168
0.0151394
0.0151108
0.0150906
0.0150901
0.0150824
0.0150734
0.0150522
0.0150335
0.0150113
0.015001
0.0149908
0.0149755
0.0149638
0.014956
0.0149371
0.014934
0.0149258
0.0149151
0.0149069
0.0149022
0.014908
0.0148998
0.0148909
0.0148808
0.0148837
0.0148839
0.0148765
0.014874
0.0148704
0.0148786
0.0148796
0.0148709
0.0148742
0.014873
0.0148719
0.0148698
0.0148736
0.01488
0.0148806
0.0148803
0.0148701
0.0148656
0.0148681
0.0148648
0.0148636
0.0148522
0.0148482
0.0148521
0.0148539
0.0148545
0.0148583
0.0148593
0.014854
0.0148559
0.01486
0.0148437
0.0148434
0.0148507
0.014849
0.0148473
0.0148488
0.0148494
0.0148508
0.0148525
0.0148417
0.0148492
0.0148475
0.0148368
0.0148459
0.0148484
0.0148451
0.0148618
0.0148644
0.0148625
0.014855
0.0148603
0.0148653
0.0148559
0.0148487
0.0148476
0.0148423
0.0148399
0.0148316
0.0148358
0.01484
0.014827
0.0148333
0.0148318
0.00382008
0.00376772
0.00367983
0.00373457
0.00397216
0.00440251
0.00526948
0.00613211
0.00739453
0.0085269
0.00982519
0.0109022
0.0119476
0.0128159
0.013593
0.0142891
0.0148468
0.0153809
0.0157824
0.0161871
0.0164901
0.0167934
0.0170149
0.0172442
0.0174162
0.0175782
0.0177042
0.0178339
0.0179315
0.01803
0.0181117
0.0181952
0.0182365
0.018283
0.0183119
0.0183074
0.0183093
0.0182691
0.0182199
0.0181554
0.0180917
0.0180001
0.017912
0.0178182
0.0177455
0.0176683
0.0176166
0.0175701
0.0175025
0.0174485
0.0173859
0.0173276
0.0172713
0.0172197
0.0171707
0.0171275
0.0170896
0.0170511
0.0170221
0.0169986
0.0169846
0.0169757
0.0169711
0.016969
0.0169756
0.0169808
0.0169945
0.017014
0.0170232
0.0170471
0.0170564
0.0170645
0.0170688
0.0170586
0.0170386
0.0170349
0.0170371
0.0170243
0.0169952
0.0169739
0.0169045
0.0168549
0.0168259
0.0167946
0.0167355
0.0166702
0.0166605
0.0166251
0.0165968
0.0165784
0.0165325
0.0164884
0.0164434
0.0164318
0.0164109
0.0163755
0.0163381
0.0162979
0.0162663
0.0162547
0.0162395
0.0162091
0.0161818
0.0161533
0.0161421
0.0161353
0.0161318
0.0161309
0.0161145
0.0161055
0.0160932
0.0160618
0.016036
0.0160014
0.015982
0.0159811
0.0159669
0.0159577
0.015935
0.0159188
0.015896
0.0158854
0.0158772
0.01586
0.0158443
0.0158363
0.0158179
0.0158164
0.0158053
0.015792
0.0157861
0.0157789
0.015785
0.0157704
0.0157622
0.015753
0.0157542
0.0157528
0.0157476
0.0157439
0.0157391
0.0157458
0.0157451
0.015743
0.015745
0.0157427
0.0157439
0.0157377
0.0157423
0.0157499
0.0157498
0.0157558
0.0157398
0.0157387
0.0157366
0.0157398
0.0157369
0.0157288
0.01572
0.0157249
0.0157279
0.0157307
0.0157299
0.0157283
0.0157251
0.0157317
0.015732
0.0157141
0.0157157
0.0157232
0.0157191
0.0157202
0.0157237
0.0157199
0.0157214
0.0157247
0.01571
0.0157159
0.0157158
0.015706
0.0157148
0.0157168
0.0157186
0.0157316
0.0157363
0.0157303
0.0157273
0.0157311
0.0157368
0.0157245
0.0157184
0.015716
0.0157128
0.0157082
0.0157048
0.0157067
0.0157118
0.0157006
0.015702
0.0157035
0.00384316
0.00383636
0.00375922
0.00368662
0.00368948
0.00376666
0.00401026
0.00438041
0.00506181
0.0058038
0.00681992
0.00784292
0.00894021
0.00997404
0.0109468
0.0118681
0.0126538
0.0134122
0.014023
0.0146175
0.0150973
0.0155615
0.0159285
0.0162879
0.0165774
0.0168455
0.0170661
0.0172823
0.0174593
0.0176305
0.0177777
0.0179268
0.0180244
0.0181235
0.0181998
0.0182337
0.0182792
0.0182647
0.0182459
0.0181991
0.0181538
0.0180737
0.0179932
0.0179058
0.0178386
0.0177653
0.0177211
0.017678
0.0176133
0.0175692
0.0175114
0.0174594
0.017406
0.0173601
0.0173119
0.0172723
0.0172343
0.0171949
0.0171657
0.0171424
0.0171299
0.0171226
0.0171178
0.0171186
0.0171304
0.0171404
0.0171595
0.0171864
0.0172007
0.0172334
0.0172505
0.0172665
0.0172823
0.01728
0.0172722
0.0172729
0.0172832
0.0172745
0.0172581
0.0172451
0.0171826
0.0171366
0.0171095
0.0170788
0.0170163
0.0169548
0.0169497
0.0169101
0.0168838
0.0168623
0.0168092
0.0167617
0.0167172
0.0167103
0.0166833
0.0166443
0.0166049
0.0165657
0.0165377
0.0165327
0.0165128
0.0164791
0.0164518
0.0164226
0.0164084
0.0164033
0.0163996
0.0163989
0.016381
0.0163802
0.0163671
0.016331
0.0163098
0.0162749
0.0162594
0.0162573
0.0162324
0.0162207
0.0161938
0.0161814
0.0161619
0.0161534
0.0161444
0.0161268
0.016108
0.0160994
0.0160869
0.0160869
0.0160705
0.0160539
0.0160527
0.0160455
0.0160461
0.0160292
0.0160191
0.0160111
0.0160094
0.0160041
0.016006
0.0160035
0.0159955
0.0159979
0.0159961
0.016001
0.0160006
0.0159971
0.0159973
0.0159922
0.0159944
0.0160017
0.0159993
0.0160099
0.0159964
0.0159931
0.0159892
0.0159986
0.0159939
0.015988
0.0159808
0.0159823
0.0159857
0.0159943
0.0159847
0.0159822
0.0159829
0.0159899
0.015987
0.015971
0.0159712
0.0159812
0.0159742
0.015976
0.0159806
0.0159737
0.0159765
0.0159784
0.0159663
0.0159657
0.0159699
0.0159605
0.0159652
0.015967
0.0159743
0.0159864
0.0159881
0.0159836
0.0159839
0.0159851
0.0159896
0.0159764
0.015974
0.0159686
0.0159666
0.0159645
0.0159616
0.0159603
0.0159663
0.0159578
0.0159577
0.0159614
0.00384272
0.00388856
0.00384078
0.00375606
0.00368323
0.00364223
0.00365976
0.00373365
0.00393021
0.00423262
0.00473844
0.00535554
0.00613351
0.0069972
0.00790578
0.00886456
0.00974879
0.0106487
0.0114259
0.0121904
0.0128435
0.0134766
0.0140049
0.0145131
0.0149441
0.0153424
0.0156812
0.0160071
0.0162853
0.0165499
0.0167808
0.0170123
0.0171839
0.017349
0.017488
0.0175719
0.01767
0.0176943
0.0177203
0.0176951
0.0176769
0.017615
0.0175475
0.0174737
0.0174186
0.0173527
0.0173207
0.0172813
0.017224
0.0171939
0.0171457
0.0171043
0.0170575
0.0170232
0.0169794
0.0169482
0.0169103
0.016871
0.0168421
0.0168214
0.016809
0.0168037
0.0167998
0.016798
0.016815
0.0168297
0.0168541
0.0168889
0.0169086
0.0169497
0.0169756
0.0169991
0.0170267
0.0170377
0.0170393
0.0170441
0.0170677
0.0170643
0.0170658
0.0170633
0.0170106
0.0169732
0.0169509
0.0169228
0.016859
0.0168087
0.0168073
0.0167632
0.0167428
0.0167166
0.0166553
0.0166051
0.0165647
0.0165605
0.0165261
0.0164847
0.0164448
0.0164099
0.0163897
0.0163903
0.0163645
0.0163288
0.0163018
0.0162776
0.0162604
0.0162548
0.0162538
0.0162495
0.0162335
0.0162349
0.0162198
0.0161818
0.0161675
0.0161348
0.0161235
0.0161237
0.0160898
0.0160698
0.0160405
0.0160295
0.0160136
0.0160087
0.0160003
0.0159834
0.0159648
0.0159535
0.0159477
0.0159495
0.0159285
0.0159143
0.0159138
0.0159067
0.0158959
0.0158814
0.0158699
0.0158595
0.015854
0.0158494
0.0158532
0.0158543
0.0158437
0.0158417
0.0158416
0.0158463
0.0158492
0.0158413
0.0158386
0.0158372
0.0158357
0.015841
0.0158384
0.0158508
0.0158434
0.0158332
0.0158336
0.0158431
0.015839
0.0158335
0.0158329
0.0158286
0.0158317
0.0158417
0.0158278
0.0158261
0.0158317
0.0158304
0.0158307
0.0158179
0.0158165
0.0158266
0.0158205
0.0158228
0.0158228
0.0158179
0.0158233
0.0158183
0.0158121
0.015809
0.0158102
0.0158041
0.0158077
0.0158086
0.0158157
0.015828
0.0158239
0.0158255
0.0158317
0.0158286
0.0158282
0.0158173
0.0158202
0.0158132
0.015811
0.0158097
0.0158075
0.0158054
0.015808
0.0158042
0.0158044
0.0158105
0.0038292
0.00391009
0.00388451
0.00382457
0.00374401
0.00367586
0.00362242
0.00359276
0.00360741
0.00366384
0.00380367
0.00404358
0.00440071
0.00487799
0.00545057
0.00616218
0.00689308
0.00772408
0.00850997
0.00933069
0.0100773
0.0108272
0.011487
0.0121276
0.0126945
0.0132259
0.0136899
0.0141345
0.0145255
0.0148958
0.0152236
0.0155491
0.0158096
0.0160523
0.0162669
0.0164141
0.0165684
0.0166443
0.0167223
0.0167442
0.0167596
0.016719
0.0166721
0.0166206
0.0165873
0.0165338
0.0165303
0.0164841
0.0164421
0.0164306
0.01639
0.0163631
0.0163285
0.0163113
0.016277
0.0162622
0.0162259
0.016188
0.0161613
0.0161527
0.0161401
0.0161216
0.0161235
0.0161181
0.0161352
0.0161551
0.0161846
0.0162274
0.0162531
0.0163018
0.0163374
0.0163685
0.0164055
0.0164286
0.0164418
0.0164555
0.0164883
0.0164995
0.0165254
0.0165287
0.0164899
0.0164681
0.0164539
0.01643
0.0163704
0.0163353
0.0163394
0.0162921
0.0162887
0.0162493
0.0161781
0.0161263
0.0160944
0.0160851
0.0160444
0.0160027
0.0159652
0.0159375
0.0159299
0.0159289
0.015899
0.015865
0.015841
0.0158254
0.0158102
0.0158016
0.0158066
0.0157909
0.0157843
0.0157834
0.015761
0.0157236
0.0157243
0.015693
0.0156856
0.0156926
0.0156553
0.015621
0.0155911
0.0155748
0.0155661
0.0155646
0.0155527
0.0155382
0.0155234
0.0155161
0.0155126
0.0155113
0.0154884
0.0154744
0.0154776
0.0154601
0.0154474
0.0154336
0.0154236
0.0154122
0.0154025
0.015399
0.0153938
0.0154005
0.0153961
0.0153923
0.0153904
0.0153901
0.0154012
0.0153887
0.0153831
0.0153796
0.0153721
0.0153775
0.0153817
0.0153957
0.0153884
0.0153781
0.0153803
0.0153825
0.015381
0.0153798
0.0153807
0.015375
0.0153771
0.01538
0.0153761
0.015374
0.0153807
0.0153711
0.0153707
0.015362
0.0153647
0.0153706
0.0153649
0.0153697
0.0153618
0.0153629
0.0153682
0.015357
0.0153562
0.0153513
0.0153464
0.0153468
0.0153547
0.0153536
0.0153568
0.0153695
0.0153594
0.015361
0.0153817
0.0153645
0.0153617
0.0153589
0.0153592
0.0153542
0.0153533
0.0153512
0.0153559
0.0153466
0.0153523
0.015348
0.0153524
0.0153606
0.00380943
0.00390843
0.00389936
0.00386416
0.00379917
0.00373512
0.00366851
0.0036099
0.00356764
0.00353802
0.00354558
0.00358317
0.00367447
0.00385004
0.00408606
0.00444582
0.0048551
0.00540214
0.00597703
0.00665194
0.00731878
0.00804411
0.00872855
0.00942149
0.0100665
0.0106917
0.0112561
0.0118038
0.0122996
0.012773
0.013199
0.0136205
0.0139771
0.0143042
0.014603
0.0148243
0.0150416
0.0151825
0.01531
0.015367
0.0154601
0.0154404
0.0154244
0.0154095
0.0154179
0.0153773
0.0153875
0.0153421
0.0153363
0.0153287
0.0153037
0.0153053
0.015292
0.0152954
0.0152721
0.0152904
0.0152453
0.0152119
0.0152047
0.0151936
0.0151668
0.0151626
0.0151583
0.0151515
0.0151572
0.0151814
0.015215
0.0152658
0.0152981
0.0153537
0.0153993
0.0154388
0.0154838
0.0155211
0.0155468
0.0155692
0.0156122
0.0156341
0.0156799
0.0157025
0.0156804
0.015684
0.0156784
0.0156583
0.0156111
0.0156033
0.0156033
0.0155624
0.0155665
0.0155196
0.0154396
0.015389
0.0153748
0.0153478
0.0153043
0.0152636
0.0152344
0.0152161
0.0152071
0.0152156
0.0151786
0.0151484
0.015141
0.015134
0.0151196
0.0151054
0.0151175
0.015092
0.0150964
0.0150919
0.0150602
0.0150373
0.0150386
0.0150167
0.0150257
0.0150286
0.0149903
0.014945
0.0149143
0.0148892
0.0148835
0.0148793
0.0148649
0.0148576
0.0148554
0.0148395
0.0148431
0.0148415
0.0148119
0.0148058
0.0148056
0.0147765
0.0147635
0.0147531
0.0147445
0.0147377
0.0147167
0.0147178
0.0147128
0.0147064
0.0147241
0.0147171
0.0147158
0.0147121
0.0147082
0.0147113
0.0146954
0.0146978
0.0146871
0.0146801
0.0146981
0.0147075
0.0146991
0.0146947
0.0146883
0.0146824
0.0146865
0.01469
0.0146857
0.014685
0.0146827
0.0146811
0.0147004
0.0146924
0.0146986
0.014679
0.0146826
0.0146814
0.0146806
0.0146817
0.014678
0.014683
0.0146722
0.0146747
0.014681
0.0146695
0.0146707
0.0146575
0.0146503
0.0146578
0.0146726
0.0146653
0.0146603
0.0146819
0.0146667
0.0146638
0.0146959
0.0146697
0.0146688
0.0146742
0.0146596
0.0146582
0.0146581
0.0146533
0.0146728
0.0146565
0.0146642
0.0146633
0.0146682
0.0146795
0.00379019
0.00389047
0.00389633
0.00387772
0.00383308
0.00377911
0.00371983
0.00365974
0.00360444
0.00355125
0.00351505
0.00348348
0.00348396
0.00350444
0.00355775
0.00367459
0.00382804
0.00407827
0.00436536
0.00476235
0.00518905
0.00571442
0.00625813
0.00685512
0.00745289
0.0080694
0.00865535
0.00924409
0.00979845
0.0103406
0.0108409
0.0113391
0.0117822
0.0121874
0.0125681
0.0128663
0.0131494
0.0133623
0.0135411
0.0136529
0.0137787
0.0138263
0.013853
0.0138718
0.0139294
0.0139218
0.0139287
0.0138992
0.0139189
0.0139031
0.0139143
0.013929
0.0139507
0.0139764
0.0140037
0.0140392
0.0140062
0.0140048
0.0140026
0.0139805
0.0139508
0.0139569
0.0139523
0.0139425
0.0139334
0.0139558
0.013992
0.0140507
0.01409
0.014152
0.0142077
0.0142563
0.0143084
0.0143595
0.014399
0.0144314
0.0144851
0.0145154
0.0145782
0.014612
0.0146239
0.0146443
0.0146643
0.0146474
0.0146277
0.0146399
0.0146443
0.0146093
0.0146239
0.0145698
0.0144833
0.0144453
0.0144448
0.0144037
0.0143541
0.0143147
0.0142929
0.0142833
0.0142773
0.014288
0.0142462
0.0142289
0.0142232
0.0142176
0.0142122
0.0142163
0.014219
0.0141929
0.0142025
0.0142015
0.014168
0.014161
0.0141698
0.0141497
0.0141638
0.0141753
0.0141301
0.0140801
0.0140546
0.014024
0.0140182
0.0140136
0.0139932
0.0139916
0.0139902
0.0139788
0.0139887
0.013989
0.0139501
0.0139573
0.0139516
0.013913
0.013897
0.0138875
0.013891
0.0138859
0.013861
0.0138573
0.0138482
0.0138451
0.0138619
0.013862
0.013862
0.0138425
0.0138377
0.0138417
0.013823
0.0138275
0.0138182
0.0138175
0.0138325
0.0138265
0.0138184
0.0138283
0.013815
0.0138119
0.013805
0.0138155
0.0138037
0.0138043
0.0137999
0.0138048
0.0138247
0.0138243
0.0138333
0.0138101
0.0138068
0.0138176
0.0138029
0.0138103
0.0138064
0.0138134
0.0138049
0.0137991
0.0138096
0.0137965
0.0138002
0.0137753
0.0137804
0.0137866
0.013799
0.0137931
0.0137836
0.0138036
0.0137901
0.0137851
0.013818
0.0137968
0.0137937
0.0138017
0.0137807
0.0137828
0.0137718
0.0137804
0.0138028
0.0137857
0.0137914
0.0138017
0.0138064
0.0138116
0.00377507
0.00386109
0.00388225
0.00387322
0.00384624
0.00380454
0.00375572
0.00370264
0.00365048
0.00359527
0.00354724
0.00349866
0.00346431
0.00343581
0.00342297
0.00343216
0.00345991
0.00352805
0.00362501
0.00378944
0.00397848
0.0042508
0.00456058
0.00493935
0.00535563
0.00582641
0.0063089
0.00682633
0.00734327
0.00787329
0.0083843
0.00890389
0.00939257
0.00984493
0.0102833
0.0106452
0.0109832
0.0112623
0.0114936
0.011662
0.011826
0.0119306
0.011997
0.0120526
0.0121146
0.0121397
0.0121637
0.0121799
0.0122043
0.0122333
0.0122757
0.0123115
0.0123555
0.0123995
0.0124443
0.0125526
0.0125656
0.0125598
0.0125968
0.0125735
0.0125687
0.0125383
0.0125279
0.0125389
0.0125245
0.012525
0.0125599
0.0126249
0.0126712
0.0127389
0.0128043
0.0128627
0.0129218
0.0129848
0.0130393
0.0130821
0.0131476
0.0131851
0.01326
0.013308
0.0133412
0.0133672
0.013431
0.013441
0.0134477
0.0134538
0.0134901
0.013477
0.0134878
0.0134308
0.0133478
0.0133325
0.0133323
0.0132854
0.0132343
0.0131989
0.013176
0.0131872
0.0131839
0.0131702
0.013144
0.013143
0.0131413
0.0131383
0.0131406
0.0131426
0.0131502
0.0131326
0.0131177
0.0131463
0.013135
0.0131281
0.0131452
0.0131335
0.0131273
0.0131598
0.0131069
0.0130635
0.0130606
0.0130122
0.0130163
0.0130065
0.0129796
0.0129921
0.0129934
0.0129685
0.0129759
0.0129882
0.0129488
0.012956
0.0129535
0.0129085
0.0128973
0.0128771
0.0128824
0.0128849
0.0128599
0.0128508
0.012852
0.0128345
0.0128576
0.0128522
0.0128623
0.0128302
0.0128216
0.012832
0.0128079
0.0128195
0.0128171
0.0128078
0.0128156
0.0127972
0.0127999
0.0128003
0.0128043
0.0128023
0.0127984
0.0127952
0.0127732
0.0127881
0.0127819
0.0127801
0.0128021
0.012807
0.0128123
0.0127899
0.0127775
0.0128124
0.0127862
0.0127934
0.0127861
0.0128001
0.0127893
0.0127787
0.0127894
0.0127791
0.0127855
0.0127609
0.0127534
0.012769
0.0127726
0.0127743
0.0127612
0.012779
0.0127595
0.012775
0.0127894
0.0127639
0.0127739
0.012772
0.0127572
0.0127752
0.0127582
0.0127606
0.0127907
0.0127746
0.0127808
0.01278
0.0127874
0.0127991
0.00376503
0.00382829
0.00385875
0.00385692
0.0038431
0.00381387
0.00377543
0.0037311
0.0036855
0.00363583
0.00358865
0.00353919
0.00349468
0.0034526
0.00341694
0.00339041
0.00336887
0.00336909
0.00337937
0.00341228
0.00346835
0.00356763
0.00369187
0.00386449
0.00407419
0.00433745
0.00463166
0.00497676
0.00534939
0.00576024
0.00618426
0.00663407
0.00708833
0.00752314
0.00796155
0.008347
0.00870567
0.00902468
0.00929374
0.00950567
0.00970102
0.00985263
0.0099548
0.0100461
0.0101236
0.0101839
0.0102229
0.0102756
0.0103167
0.0103776
0.0104485
0.0105076
0.0105783
0.0106367
0.010698
0.010827
0.0109122
0.0109608
0.0110036
0.0110041
0.011017
0.0110073
0.0109997
0.0109586
0.0109824
0.0109525
0.0109741
0.0110385
0.0110905
0.0111627
0.0112365
0.0113048
0.0113711
0.0114431
0.0115132
0.0115661
0.0116439
0.0116874
0.0117702
0.0118297
0.0118824
0.0119176
0.0119853
0.0120331
0.0120694
0.0120979
0.0121438
0.0121785
0.0121973
0.012134
0.0120895
0.0120505
0.0120726
0.0120343
0.0119767
0.0119416
0.0119442
0.0119477
0.0119355
0.0119067
0.0119067
0.0118999
0.0119051
0.0119013
0.011896
0.011905
0.0119446
0.011928
0.0119108
0.0119341
0.01196
0.0119466
0.0119828
0.0119648
0.0119778
0.0119967
0.0119481
0.0119404
0.0119472
0.0119078
0.0118989
0.0118732
0.0118491
0.0118588
0.0118699
0.0118491
0.0118367
0.0118638
0.0118334
0.0118347
0.0118177
0.0117886
0.0117821
0.0117684
0.0117524
0.0117751
0.0117568
0.0117489
0.011727
0.0117171
0.011738
0.0117321
0.0117395
0.0117025
0.0116982
0.0117099
0.0116888
0.0116724
0.0116968
0.0116701
0.011681
0.0116814
0.0116675
0.0116497
0.0116791
0.0116828
0.0116802
0.0116557
0.0116428
0.0116407
0.0116553
0.0116402
0.0116799
0.0116809
0.0116785
0.0116606
0.0116487
0.0116859
0.0116556
0.0116591
0.011649
0.0116779
0.0116497
0.0116533
0.0116589
0.0116515
0.0116535
0.0116417
0.0116423
0.0116329
0.0116208
0.0116504
0.0116331
0.0116436
0.011635
0.0116424
0.011654
0.0116238
0.0116306
0.0116169
0.0116163
0.011642
0.0116303
0.0116371
0.0116629
0.011655
0.0116515
0.0116587
0.0116431
0.0116737
0.00375866
0.00379814
0.00382944
0.00383376
0.00382757
0.00381006
0.00378113
0.00374552
0.00370712
0.00366451
0.00362179
0.00357669
0.00353277
0.00348937
0.0034471
0.00340942
0.00337416
0.00334641
0.00332534
0.00331102
0.003312
0.00332378
0.00335095
0.00340499
0.00347995
0.00358586
0.00371636
0.00388622
0.00408495
0.00432337
0.00459099
0.00489233
0.0052237
0.00556008
0.0059165
0.00625725
0.00657778
0.00688395
0.00715231
0.00737671
0.00757866
0.00775509
0.0078791
0.00799592
0.00808543
0.00817571
0.00822706
0.00830674
0.00836912
0.00845023
0.00853833
0.00861942
0.00870972
0.00878761
0.00887369
0.00900637
0.00913407
0.00921634
0.00925087
0.00928584
0.00937058
0.00936572
0.00937397
0.00934406
0.00936089
0.00934481
0.00932293
0.00936212
0.00941436
0.00948771
0.00956722
0.00964367
0.00971759
0.0097951
0.00987865
0.0099415
0.0100298
0.0100805
0.0101681
0.0102332
0.0103043
0.0103492
0.0104227
0.0105034
0.0105633
0.0106068
0.0106687
0.01071
0.0107894
0.0107255
0.010681
0.01069
0.0106982
0.0106872
0.0106458
0.0106238
0.0105872
0.0106029
0.0105883
0.0105492
0.0105798
0.0105388
0.0105554
0.0105375
0.010547
0.0105635
0.010619
0.0106123
0.0105989
0.0106219
0.0106396
0.0106624
0.0107033
0.0106924
0.0107017
0.0107161
0.0106998
0.0106824
0.0107189
0.0106892
0.0106931
0.0106491
0.0106504
0.0106328
0.0106544
0.0106269
0.0106393
0.0106524
0.0106223
0.0106342
0.0105982
0.0105841
0.0105805
0.0105697
0.0105501
0.0105831
0.0105447
0.0105273
0.01054
0.0105187
0.010547
0.0105178
0.0105404
0.0104923
0.0105057
0.0105053
0.0104625
0.0104696
0.0104839
0.0104698
0.010458
0.010484
0.0104522
0.0104514
0.0104465
0.0104779
0.0104806
0.0104501
0.0104387
0.0104283
0.0104548
0.0104415
0.0104711
0.0104692
0.0104702
0.0104531
0.010447
0.0104771
0.0104692
0.0104521
0.01044
0.0104793
0.0104393
0.01045
0.0104538
0.0104464
0.0104439
0.01044
0.0104447
0.010414
0.0104205
0.0104379
0.0104226
0.0104346
0.0104296
0.0104357
0.01044
0.0104187
0.0104099
0.0104236
0.0104172
0.0104168
0.0104057
0.0104342
0.0104365
0.0104384
0.0104686
0.0104531
0.0104296
0.0104681
0.00375412
0.00377411
0.00379883
0.00380679
0.00380444
0.00379522
0.00377553
0.00374773
0.00371629
0.00368071
0.00364355
0.003604
0.00356388
0.00352326
0.00348237
0.00344302
0.00340441
0.00336794
0.00333604
0.0033066
0.00328301
0.00326547
0.00325332
0.00325489
0.00326422
0.00328684
0.00332653
0.00338651
0.00346343
0.00356575
0.00369175
0.00384367
0.00402505
0.00422431
0.00444542
0.00468039
0.00490572
0.00513825
0.00535234
0.00554375
0.00571376
0.00587791
0.00599626
0.00611655
0.00620289
0.00630425
0.0063612
0.00645021
0.00652333
0.00661364
0.00670206
0.00680103
0.00689783
0.00698813
0.00709403
0.00722932
0.00735972
0.00744392
0.00750459
0.00755419
0.0077186
0.00774029
0.00772601
0.00767846
0.00775412
0.00771142
0.0077358
0.00770873
0.00774099
0.00780603
0.00788542
0.00796553
0.00804494
0.00812449
0.00821593
0.00828699
0.0083823
0.00843922
0.0085308
0.00859558
0.00867979
0.00873437
0.00880994
0.00890733
0.00899072
0.00904286
0.00912751
0.00919068
0.00930794
0.0092817
0.00926983
0.00924534
0.00926477
0.00926718
0.00923249
0.00922066
0.00920876
0.0092094
0.00918673
0.00914996
0.0091895
0.00916353
0.00914065
0.00917685
0.00915958
0.00917151
0.00919487
0.00922291
0.00923781
0.00924065
0.0092246
0.00924518
0.00929848
0.00934442
0.00933469
0.00932045
0.00933759
0.00936023
0.00939567
0.00939197
0.00940788
0.0093713
0.00935894
0.00937122
0.00938408
0.0093797
0.00936466
0.00940084
0.0093821
0.00938491
0.00934051
0.00936373
0.0093224
0.00933469
0.00930428
0.00933217
0.00929374
0.00927593
0.00926024
0.00927924
0.00928926
0.00927577
0.00928363
0.00924856
0.00925418
0.00925521
0.00923449
0.00921136
0.00924133
0.00922821
0.00920689
0.00924048
0.00921972
0.00919095
0.00919051
0.0092002
0.00923501
0.00921772
0.00921076
0.00919554
0.00919557
0.00919045
0.00919881
0.00923129
0.0092173
0.00918749
0.00921571
0.009221
0.00922378
0.009191
0.00920588
0.00922522
0.00920576
0.00918578
0.00921829
0.00918498
0.00918035
0.00919699
0.00920297
0.00916571
0.00917399
0.00918693
0.00918132
0.00918563
0.00918667
0.00918993
0.00916034
0.00916467
0.00914775
0.00918291
0.00916999
0.00917544
0.00917166
0.00917865
0.00916541
0.0091827
0.00922245
0.00918928
0.0091896
0.00921442
0.00375061
0.00375667
0.00377074
0.00377843
0.00377785
0.00377298
0.00376067
0.00373998
0.00371477
0.00368565
0.00365416
0.00362021
0.00358487
0.00354839
0.00351106
0.00347367
0.0034366
0.0033995
0.00336466
0.00333038
0.00329866
0.00327058
0.00324475
0.00322374
0.00320856
0.0031969
0.00319694
0.00320259
0.00321692
0.00324573
0.00328785
0.00334413
0.00341737
0.0035071
0.00360978
0.00373312
0.00385302
0.00398728
0.00411635
0.00424139
0.00435043
0.00446737
0.00455184
0.004647
0.00471126
0.00479712
0.00484677
0.00492474
0.00498751
0.00507192
0.0051444
0.00524204
0.00533576
0.00541845
0.00552891
0.00566131
0.00577757
0.00585736
0.00592401
0.00597617
0.00616017
0.00619882
0.00621103
0.00620541
0.00624347
0.00619757
0.00625967
0.00624372
0.00620888
0.00624479
0.00631207
0.00638737
0.00646559
0.00654322
0.00663315
0.00670741