/*--------------------------------*- C++ -*----------------------------------*\
  =========                 |
  \\      /  F ield         | OpenFOAM: The Open Source CFD Toolbox
   \\    /   O peration     | Website:  https://openfoam.org
    \\  /    A nd           | Version:  12
     \\/     M anipulation  |
\*---------------------------------------------------------------------------*/
FoamFile
{
    format      ascii;
    class       volScalarField;
    location    "100";
    object      nut;
}
// * * * * * * * * * * * * * * * * * * * * * * * * * * * * * * * * * * * * * //

dimensions      [0 2 -1 0 0 0 0];

internalField   nonuniform List<scalar> 
20000
(
1.76045e-06
6.62163e-07
7.36393e-07
9.54447e-07
1.17666e-06
1.24513e-06
1.40995e-06
1.49451e-06
1.66378e-06
1.72252e-06
1.83537e-06
1.87516e-06
1.94527e-06
1.97959e-06
2.02488e-06
2.06205e-06
2.08858e-06
2.11762e-06
2.13227e-06
2.15452e-06
2.16544e-06
2.18035e-06
2.18635e-06
2.19602e-06
2.20029e-06
2.20524e-06
2.20782e-06
2.21188e-06
2.21324e-06
2.21523e-06
2.21617e-06
2.21615e-06
2.21238e-06
2.20843e-06
2.20319e-06
2.19358e-06
2.18515e-06
2.16995e-06
2.15606e-06
2.14128e-06
2.12708e-06
2.10982e-06
2.09396e-06
2.0777e-06
2.0654e-06
2.05245e-06
2.04286e-06
2.0343e-06
2.02349e-06
2.01277e-06
2.00204e-06
1.99176e-06
1.98272e-06
1.97387e-06
1.96642e-06
1.95951e-06
1.954e-06
1.94841e-06
1.94403e-06
1.94036e-06
1.93834e-06
1.93705e-06
1.93544e-06
1.93399e-06
1.93389e-06
1.93375e-06
1.9343e-06
1.93554e-06
1.93562e-06
1.93633e-06
1.93618e-06
1.93455e-06
1.93273e-06
1.92744e-06
1.92164e-06
1.91913e-06
1.91808e-06
1.91507e-06
1.90728e-06
1.90202e-06
1.88861e-06
1.88065e-06
1.87575e-06
1.8706e-06
1.86241e-06
1.85178e-06
1.84921e-06
1.84412e-06
1.83986e-06
1.83746e-06
1.83192e-06
1.82569e-06
1.8186e-06
1.81608e-06
1.8139e-06
1.80922e-06
1.80353e-06
1.79763e-06
1.79228e-06
1.7897e-06
1.78817e-06
1.78435e-06
1.77945e-06
1.77646e-06
1.77478e-06
1.77252e-06
1.7717e-06
1.76991e-06
1.76652e-06
1.76353e-06
1.7622e-06
1.7574e-06
1.75297e-06
1.7501e-06
1.74761e-06
1.74816e-06
1.74682e-06
1.74542e-06
1.7415e-06
1.73774e-06
1.73453e-06
1.73285e-06
1.72938e-06
1.72877e-06
1.72742e-06
1.72664e-06
1.72385e-06
1.72273e-06
1.72169e-06
1.71958e-06
1.71832e-06
1.71802e-06
1.71833e-06
1.71811e-06
1.7175e-06
1.71484e-06
1.71511e-06
1.71602e-06
1.71511e-06
1.71548e-06
1.71473e-06
1.71562e-06
1.71588e-06
1.71414e-06
1.71473e-06
1.71443e-06
1.71405e-06
1.7142e-06
1.7142e-06
1.71476e-06
1.71453e-06
1.71379e-06
1.71364e-06
1.7126e-06
1.71326e-06
1.71179e-06
1.71148e-06
1.70981e-06
1.71043e-06
1.70998e-06
1.70998e-06
1.70985e-06
1.7108e-06
1.71145e-06
1.71114e-06
1.70987e-06
1.70975e-06
1.70856e-06
1.70751e-06
1.71002e-06
1.70919e-06
1.70852e-06
1.7091e-06
1.70929e-06
1.70911e-06
1.70917e-06
1.7089e-06
1.70947e-06
1.7104e-06
1.70813e-06
1.70845e-06
1.70921e-06
1.70845e-06
1.71052e-06
1.71324e-06
1.71183e-06
1.70987e-06
1.71023e-06
1.71123e-06
1.71087e-06
1.70959e-06
1.70915e-06
1.70878e-06
1.70827e-06
1.70573e-06
1.70583e-06
1.70743e-06
1.70528e-06
1.70632e-06
1.70726e-06
3.08471e-05
2.67161e-05
2.95624e-05
3.82927e-05
4.8574e-05
5.35233e-05
6.35387e-05
6.94049e-05
7.96204e-05
8.41578e-05
9.16715e-05
9.52381e-05
0.000100523
0.00010373
0.000107548
0.000110839
0.000113522
0.000116222
0.000118197
0.00012042
0.000122059
0.000123795
0.000125084
0.000126451
0.000127543
0.000128586
0.000129495
0.000130398
0.000131161
0.000131896
0.000132563
0.000133135
0.000133543
0.00013389
0.000134137
0.00013417
0.000134208
0.000133903
0.000133609
0.000133238
0.00013285
0.000132284
0.000131753
0.000131177
0.00013078
0.000130328
0.000130042
0.000129792
0.000129396
0.000129015
0.000128615
0.000128238
0.000127911
0.000127597
0.00012734
0.000127114
0.000126952
0.000126786
0.000126671
0.000126598
0.000126597
0.000126639
0.000126667
0.000126702
0.000126797
0.000126907
0.000127027
0.000127186
0.000127292
0.000127419
0.000127511
0.00012753
0.000127529
0.000127362
0.000127163
0.00012714
0.000127166
0.000127098
0.000126774
0.000126582
0.000125973
0.000125634
0.000125457
0.000125261
0.000124879
0.000124376
0.000124324
0.000124116
0.00012395
0.000123869
0.000123624
0.00012332
0.000122987
0.00012292
0.000122846
0.000122629
0.000122357
0.000122076
0.000121832
0.000121753
0.000121714
0.000121542
0.000121322
0.000121216
0.000121154
0.000121097
0.000121095
0.000121072
0.000120927
0.000120799
0.000120759
0.000120538
0.000120299
0.00012013
0.000119994
0.000120034
0.000120009
0.000119971
0.000119782
0.000119587
0.00011944
0.000119369
0.000119219
0.000119186
0.000119142
0.000119102
0.00011896
0.000118913
0.000118887
0.000118803
0.000118717
0.000118686
0.000118717
0.000118714
0.000118697
0.000118567
0.000118561
0.000118602
0.000118551
0.000118564
0.000118517
0.000118589
0.000118609
0.000118526
0.00011856
0.00011854
0.000118539
0.000118555
0.000118555
0.000118611
0.000118589
0.000118583
0.000118567
0.000118505
0.000118543
0.000118487
0.000118488
0.000118382
0.000118397
0.000118407
0.000118413
0.000118406
0.000118459
0.000118476
0.00011847
0.000118405
0.00011842
0.00011836
0.000118295
0.000118442
0.000118382
0.000118321
0.000118386
0.000118375
0.000118354
0.000118387
0.00011836
0.000118404
0.000118423
0.000118296
0.000118336
0.000118374
0.000118306
0.00011846
0.000118594
0.000118505
0.000118389
0.000118414
0.000118484
0.000118471
0.000118393
0.000118363
0.000118345
0.000118341
0.000118235
0.000118228
0.000118316
0.000118194
0.00011827
0.000118308
0.000184042
6.41089e-05
4.68981e-05
5.20542e-05
6.67901e-05
7.92724e-05
0.000100372
0.000115647
0.000135641
0.000149014
0.000165649
0.000176794
0.000190104
0.000200055
0.000210646
0.000220297
0.000228521
0.0002368
0.000243481
0.00025056
0.000256305
0.000262175
0.000266958
0.000271984
0.000276152
0.00028025
0.000283848
0.000287507
0.000290649
0.000293769
0.000296638
0.000299252
0.000301495
0.000303494
0.000305197
0.000306416
0.000307491
0.000307795
0.000307981
0.000307927
0.00030774
0.000307072
0.000306456
0.000305685
0.000305275
0.000304708
0.000304512
0.000304346
0.000303796
0.00030333
0.000302768
0.000302278
0.000301875
0.000301512
0.000301258
0.000301079
0.000301004
0.000300928
0.000300961
0.000301105
0.000301368
0.000301711
0.000302051
0.000302393
0.000302866
0.000303367
0.000303896
0.000304482
0.000304941
0.000305478
0.000305879
0.000306174
0.000306352
0.000306225
0.000305956
0.000306144
0.000306401
0.00030642
0.000305897
0.000305622
0.000304451
0.000303862
0.000303658
0.000303385
0.000302605
0.000301635
0.000301713
0.000301375
0.000301139
0.000301068
0.000300589
0.000299999
0.000299351
0.00029935
0.000299265
0.000298865
0.000298324
0.000297754
0.000297329
0.000297278
0.000297272
0.00029699
0.000296614
0.000296473
0.000296471
0.000296471
0.000296572
0.00029666
0.000296383
0.000296199
0.000296147
0.000295681
0.000295216
0.000294843
0.000294583
0.000294664
0.000294597
0.000294554
0.000294182
0.000293827
0.000293524
0.000293431
0.000293296
0.000293178
0.00029312
0.000293072
0.000292796
0.000292763
0.000292728
0.000292636
0.00029247
0.000292408
0.000292501
0.000292425
0.000292389
0.000292186
0.000292194
0.000292191
0.000292083
0.00029208
0.000291983
0.000292125
0.000292184
0.000292074
0.000292141
0.000292139
0.000292159
0.000292167
0.000292196
0.000292408
0.000292334
0.000292398
0.000292321
0.000292144
0.000292221
0.00029219
0.000292211
0.000291979
0.000291941
0.000292048
0.000292131
0.000292118
0.000292204
0.00029219
0.00029219
0.000292111
0.000292127
0.000291966
0.000291855
0.000292168
0.000292066
0.000291972
0.000292073
0.000292038
0.000291998
0.000292121
0.000291986
0.000292122
0.00029206
0.000291771
0.000291928
0.000292009
0.000291881
0.000292254
0.000292454
0.000292272
0.000292016
0.000292148
0.000292265
0.000292188
0.00029208
0.000292013
0.00029195
0.000291926
0.000291811
0.000291827
0.000291928
0.000291674
0.000291821
0.00029189
0.000739874
0.000189051
0.000102435
7.72562e-05
7.73729e-05
8.60358e-05
0.000105513
0.000122542
0.000146775
0.000165864
0.000189108
0.000207745
0.000228073
0.000245659
0.000263225
0.000279774
0.000293999
0.00030863
0.000320796
0.000333583
0.000344194
0.000355078
0.000364223
0.000373741
0.000381848
0.000389815
0.000396917
0.000404113
0.000410418
0.000416709
0.000422514
0.000428079
0.000432629
0.000437017
0.000440804
0.000443818
0.000446414
0.000447925
0.000448997
0.000449601
0.000449943
0.000449465
0.000449014
0.000448282
0.000448073
0.000447602
0.000447742
0.000447868
0.000447348
0.000447061
0.00044653
0.000446133
0.000445813
0.00044557
0.000445453
0.000445457
0.000445605
0.000445716
0.000446019
0.000446484
0.000447115
0.000447835
0.00044859
0.00044937
0.000450329
0.000451248
0.000452334
0.000453515
0.000454393
0.000455543
0.000456291
0.000456983
0.000457475
0.000457535
0.00045736
0.00045787
0.000458422
0.00045862
0.000458073
0.000457848
0.000456272
0.000455497
0.000455319
0.000455014
0.000453867
0.000452508
0.000452887
0.000452457
0.000452206
0.000452171
0.000451447
0.000450596
0.000449678
0.000449851
0.000449766
0.000449211
0.000448404
0.000447625
0.000447111
0.000447211
0.000447264
0.000446865
0.000446378
0.000446216
0.000446319
0.000446441
0.000446694
0.000446919
0.000446553
0.000446391
0.000446291
0.000445498
0.000444966
0.000444385
0.000444133
0.000444333
0.000444105
0.000444055
0.00044351
0.000443014
0.000442556
0.000442488
0.000442432
0.00044223
0.000442201
0.000442229
0.000441853
0.000441898
0.000441824
0.000441645
0.000441576
0.00044146
0.000441561
0.000441275
0.000441236
0.000441138
0.000441075
0.000441074
0.000440927
0.000440931
0.000440835
0.00044098
0.00044103
0.000440969
0.000441054
0.000441059
0.00044109
0.000441132
0.000441109
0.000441317
0.000441318
0.000441469
0.000441383
0.000441181
0.000441179
0.000441143
0.000441163
0.000440972
0.000440797
0.000441126
0.000441159
0.000441216
0.000441252
0.000441214
0.000441172
0.000441151
0.000441169
0.000440774
0.00044069
0.000441153
0.000441041
0.000440967
0.00044112
0.000441056
0.000441009
0.000441089
0.000440914
0.000440993
0.000440964
0.000440613
0.000440804
0.000440968
0.000440865
0.000441242
0.000441442
0.000441249
0.000441009
0.00044112
0.000441354
0.000441064
0.000440949
0.000440901
0.000440762
0.000440701
0.00044065
0.000440724
0.000440851
0.0004405
0.000440612
0.000440813
0.00150088
0.000517613
0.000248827
0.00016452
0.000113582
0.000103073
0.000107017
0.00011611
0.000135911
0.00015574
0.000181621
0.000205185
0.000230541
0.000253801
0.000276813
0.00029934
0.000319387
0.000339954
0.000357596
0.000376317
0.000391823
0.000408207
0.000422178
0.000436714
0.00044931
0.000461695
0.000472859
0.000484145
0.000494181
0.000504208
0.000513465
0.0005226
0.000529986
0.000537432
0.000543821
0.000548874
0.000553646
0.000556822
0.000559187
0.000560712
0.000561901
0.000561872
0.000561783
0.000561286
0.000561451
0.000561243
0.000561959
0.000562549
0.000562209
0.000562392
0.000562086
0.000561986
0.000561867
0.000561899
0.000561986
0.000562273
0.000562709
0.00056302
0.00056364
0.000564438
0.000565482
0.000566587
0.00056773
0.000569049
0.000570499
0.00057194
0.00057363
0.000575506
0.00057683
0.000578751
0.000579959
0.000581135
0.00058211
0.000582453
0.000582598
0.000583607
0.00058444
0.00058484
0.000584533
0.000584542
0.000582739
0.000581868
0.000581743
0.00058142
0.000579896
0.000578304
0.000579182
0.000578613
0.000578432
0.000578419
0.000577349
0.000576234
0.000575112
0.000575602
0.000575476
0.000574714
0.000573636
0.000572742
0.000572295
0.000572673
0.000572756
0.000572155
0.000571586
0.000571438
0.000571637
0.000571987
0.000572492
0.00057281
0.000572314
0.000572274
0.000572059
0.00057093
0.000570471
0.000569697
0.000569694
0.000569993
0.00056955
0.000569437
0.00056865
0.000568036
0.000567425
0.000567436
0.000567472
0.000567188
0.00056719
0.000567391
0.000566982
0.000567153
0.000566948
0.000566604
0.000566728
0.000566657
0.000566707
0.000566087
0.00056604
0.000566164
0.000565981
0.000565934
0.000565743
0.000565946
0.000565955
0.00056599
0.000565887
0.000565958
0.000566131
0.000566103
0.000566093
0.000566
0.000565896
0.000566231
0.000566216
0.000566546
0.000566502
0.000566262
0.000566153
0.000566215
0.000566141
0.000566006
0.000565652
0.000566275
0.000566302
0.000566342
0.000566432
0.000566243
0.000566263
0.000566201
0.000566189
0.000565707
0.000565525
0.000566286
0.000566024
0.000566115
0.000566179
0.000566054
0.000566027
0.000566096
0.000565813
0.000565808
0.000565865
0.000565579
0.000565607
0.000565847
0.000565924
0.000566274
0.000566438
0.000566164
0.000566105
0.000566061
0.000566423
0.000565851
0.000565744
0.000565737
0.000565591
0.000565411
0.000565485
0.000565505
0.000565752
0.000565374
0.000565439
0.000565849
0.00202454
0.00106583
0.000548773
0.000373981
0.000234546
0.00018099
0.000144799
0.000133765
0.000135955
0.000144408
0.000162532
0.000183083
0.00020789
0.000233255
0.000259317
0.000286162
0.000311049
0.000337069
0.000359963
0.000384049
0.000405083
0.000426835
0.000445803
0.000465531
0.000482722
0.000499751
0.000515266
0.000530935
0.000545046
0.000559197
0.000572218
0.000585387
0.000596103
0.000606937
0.000616403
0.000623873
0.0006316
0.000636359
0.000640766
0.000643517
0.000645962
0.000646659
0.000647121
0.000647074
0.00064782
0.000648039
0.000649658
0.000650784
0.000650816
0.000651819
0.00065193
0.000652358
0.000652569
0.000653099
0.000653444
0.000654166
0.0006549
0.000655393
0.000656318
0.000657421
0.000658923
0.000660475
0.00066179
0.000663564
0.000665605
0.000667564
0.000669939
0.000672603
0.000674383
0.000677191
0.00067897
0.000680722
0.000682511
0.000683144
0.000683951
0.000685312
0.000686773
0.000687334
0.000687619
0.000688071
0.000686199
0.000685442
0.000685415
0.000685087
0.000683123
0.000681641
0.000683191
0.000682345
0.000682456
0.000682385
0.00068078
0.000679378
0.000678212
0.000679299
0.000678877
0.000677785
0.000676469
0.000675571
0.000675427
0.000676351
0.000676291
0.000675357
0.000674746
0.000674721
0.000675003
0.000675671
0.000676616
0.000677025
0.000676203
0.000676492
0.000676029
0.000674647
0.000674408
0.000673501
0.000673815
0.000674482
0.00067358
0.000673281
0.00067213
0.000671576
0.000670741
0.000670932
0.000671088
0.000670698
0.000670714
0.000671036
0.00067084
0.000671291
0.000670628
0.000670224
0.000670512
0.000670354
0.000670461
0.000669516
0.000669457
0.000669542
0.000669595
0.000669223
0.000669174
0.000669521
0.000669754
0.000669723
0.000669527
0.000669634
0.000669853
0.000669687
0.000669613
0.000669556
0.000669257
0.000669664
0.000669625
0.000670235
0.00067002
0.000669754
0.000669731
0.00066983
0.000669636
0.000669381
0.000669398
0.000669745
0.000669803
0.00067023
0.000670077
0.000669703
0.00066987
0.000669805
0.000669734
0.000669284
0.00066901
0.000669961
0.00066956
0.000669778
0.000669878
0.000669656
0.000669591
0.000669642
0.000669322
0.00066913
0.000669212
0.000669177
0.000669157
0.00066939
0.000669172
0.00066994
0.000669777
0.000669736
0.000669817
0.000669619
0.000669981
0.000669203
0.000669255
0.000669176
0.000668863
0.000668598
0.000668812
0.000668974
0.000669139
0.000668788
0.000668715
0.000669632
0.00226749
0.00163279
0.000980298
0.000726882
0.000476128
0.000364246
0.000267133
0.000218623
0.000183925
0.000169415
0.000167197
0.000173199
0.000187246
0.000206203
0.00022864
0.000254747
0.000280381
0.00030881
0.000334872
0.000362736
0.000388033
0.000414451
0.00043801
0.000462403
0.000484429
0.000506202
0.000526155
0.000546395
0.00056486
0.000583465
0.000600403
0.000617992
0.000632479
0.000646969
0.000660115
0.000670234
0.000681231
0.00068811
0.0006954
0.000699334
0.000703534
0.000705207
0.000706359
0.000707082
0.000708735
0.00070949
0.000712332
0.000713906
0.00071455
0.000716715
0.00071751
0.000718747
0.000719423
0.000720828
0.000721517
0.000722934
0.000723817
0.000724437
0.000725574
0.000727108
0.000728905
0.00073089
0.000732446
0.000734161
0.000736805
0.000739295
0.000742382
0.000745947
0.000748198
0.000752041
0.000754449
0.000756854
0.000759666
0.000761039
0.000762312
0.000763907
0.000766546
0.000767269
0.000768653
0.000769769
0.000767917
0.000767625
0.000767798
0.000767495
0.000765056
0.000764257
0.000766463
0.000765208
0.000765946
0.000765626
0.000763241
0.000761542
0.00076068
0.000762282
0.000761306
0.000759841
0.000758449
0.00075776
0.000758311
0.000759759
0.000759328
0.000757961
0.000757445
0.000757696
0.000758028
0.00075899
0.000760587
0.000760814
0.000760255
0.000760769
0.000759843
0.000758393
0.000758556
0.000757573
0.000758345
0.000759503
0.000758044
0.000757109
0.000755659
0.000755224
0.00075433
0.000754745
0.000754961
0.000754471
0.000754545
0.000754975
0.000755094
0.00075587
0.000754586
0.000754538
0.000754876
0.00075423
0.000753842
0.000753146
0.000753123
0.00075294
0.000753003
0.00075289
0.000753124
0.00075348
0.000753423
0.000753638
0.000753678
0.000753347
0.000753912
0.000753335
0.00075312
0.000753353
0.000753078
0.000753149
0.000753284
0.000754061
0.000753446
0.000753027
0.000753549
0.000753399
0.000753439
0.000752872
0.000753049
0.000753319
0.00075326
0.00075414
0.00075376
0.00075342
0.00075373
0.000753471
0.000753181
0.000753047
0.000752947
0.000753728
0.000753556
0.000753685
0.000753353
0.000753533
0.000753426
0.000753197
0.000752997
0.000752755
0.000752702
0.000752803
0.000753001
0.000753164
0.000752633
0.000753859
0.000753255
0.000753414
0.000753732
0.000753507
0.000753473
0.000752877
0.0007528
0.000752865
0.000752179
0.000752033
0.000752265
0.00075259
0.000752477
0.000752486
0.000752292
0.000753552
0.00235475
0.00203564
0.00143701
0.00115852
0.000825438
0.000662643
0.000497421
0.000402904
0.000320815
0.000269391
0.000232131
0.000212007
0.000203452
0.000204504
0.000212793
0.000228772
0.000247376
0.000271829
0.000296117
0.000323974
0.000350443
0.000379236
0.000405763
0.000433492
0.000459348
0.000485207
0.000509128
0.000533506
0.000556095
0.000578808
0.000599854
0.000621605
0.000640231
0.000658337
0.000675551
0.000688532
0.000702633
0.000712101
0.000722309
0.00072901
0.000735248
0.0007378
0.000739857
0.000741792
0.00074495
0.00074641
0.000751661
0.000752554
0.000754316
0.000758021
0.000759254
0.000761589
0.000763081
0.000765766
0.000767031
0.000769726
0.000770582
0.00077124
0.000772597
0.000775383
0.000777274
0.000778181
0.000780442
0.000781866
0.000784643
0.000787723
0.000791559
0.000796057
0.000799073
0.000803602
0.000806996
0.000810144
0.000813816
0.000816073
0.000817983
0.000820179
0.000823713
0.00082538
0.000828691
0.000830019
0.000828492
0.00082925
0.000829797
0.000829519
0.000826889
0.000827173
0.000830109
0.000828411
0.000830812
0.000829318
0.000825765
0.000823821
0.000823763
0.000825166
0.000823531
0.000821774
0.000820629
0.000820437
0.000822253
0.000823464
0.000822589
0.000820946
0.000820894
0.000821383
0.000822066
0.000823095
0.000825172
0.000824813
0.000825305
0.000825983
0.000824569
0.000823398
0.00082469
0.000823285
0.000824442
0.000826242
0.000824064
0.000821952
0.00082062
0.000819901
0.00082007
0.00082071
0.000820213
0.000819657
0.000819905
0.000821026
0.000821346
0.000821907
0.000820049
0.000819862
0.000820864
0.000819404
0.000818616
0.000818011
0.000818157
0.0008177
0.000817907
0.000818048
0.000817787
0.000818734
0.00081861
0.000818631
0.000819139
0.000818438
0.000819078
0.000818191
0.000817695
0.000818242
0.000817768
0.00081824
0.000818063
0.000819081
0.000817994
0.000817396
0.000818525
0.000818111
0.000818331
0.000818015
0.000817866
0.000818047
0.000818069
0.000818749
0.000818756
0.000818721
0.000819135
0.000818181
0.000817653
0.000817671
0.000818244
0.000818754
0.000818491
0.000818871
0.000818047
0.000818487
0.000818508
0.00081772
0.000817624
0.000817339
0.000817627
0.000817453
0.0008181
0.000818294
0.000817654
0.000818897
0.000818169
0.000817785
0.000819123
0.000817929
0.000817725
0.000817769
0.000817574
0.000817399
0.000816935
0.000816943
0.000817382
0.000816771
0.000817523
0.000817028
0.000817504
0.00081869
0.00237422
0.00226286
0.00182023
0.00157026
0.00121796
0.00102969
0.000817458
0.000683619
0.000556579
0.000465525
0.000390867
0.000333259
0.000291682
0.000263991
0.000247956
0.000242239
0.000243389
0.00025372
0.000267377
0.000287737
0.00030908
0.00033508
0.000360585
0.000388423
0.000415543
0.000443504
0.000469923
0.000497191
0.000523016
0.000549088
0.000573642
0.000599046
0.000621661
0.0006432
0.000664269
0.000680665
0.00069716
0.000710366
0.00072226
0.000730034
0.000741979
0.000744874
0.000748156
0.0007522
0.000758421
0.000760217
0.000766281
0.00076673
0.000771506
0.000775237
0.000777473
0.000782151
0.000785232
0.00078932
0.000791156
0.00079681
0.000796319
0.000797068
0.000800226
0.00080262
0.000802996
0.00080532
0.000806997
0.000808225
0.000809816
0.000813429
0.00081783
0.000823409
0.000827078
0.000832581
0.000836945
0.000840849
0.000845234
0.000848959
0.000851898
0.000854572
0.000859038
0.000861445
0.000866405
0.000869208
0.000868391
0.000871245
0.000872069
0.000871582
0.000869469
0.000872224
0.00087449
0.000873091
0.000876286
0.00087397
0.000869049
0.00086715
0.000868882
0.000868624
0.00086649
0.000864557
0.000864292
0.00086484
0.000866498
0.000868564
0.000866551
0.000864927
0.000866769
0.000867396
0.000868067
0.000868543
0.000871024
0.000869945
0.000871824
0.00087301
0.000870868
0.000871777
0.000872642
0.000871253
0.000873825
0.000875009
0.00087226
0.000869025
0.000868292
0.000867321
0.000868398
0.000868993
0.000867584
0.000867252
0.000868402
0.000868561
0.000869861
0.00087048
0.000867621
0.000867659
0.000869012
0.000866588
0.000865835
0.000865077
0.000865204
0.000864905
0.000864468
0.000865045
0.000865451
0.000865339
0.000866844
0.000865977
0.000866847
0.00086633
0.000865473
0.000866203
0.00086458
0.000865636
0.000865086
0.00086471
0.000865392
0.000865956
0.000864294
0.000864039
0.000864696
0.000864342
0.000865011
0.000865297
0.000864289
0.000864688
0.00086425
0.000864689
0.000866377
0.000866059
0.000866463
0.000864663
0.000865073
0.000865416
0.000865439
0.000865773
0.000865651
0.00086614
0.000864772
0.000865662
0.000865826
0.000864995
0.000864927
0.000863914
0.000864213
0.000864229
0.000865461
0.000865154
0.000864165
0.000866155
0.000865119
0.00086433
0.000866585
0.000864591
0.000864814
0.000865139
0.00086367
0.000863607
0.000863765
0.00086329
0.000865063
0.000863237
0.00086462
0.000864143
0.000864547
0.000866054
0.00237058
0.00236756
0.00209061
0.00189837
0.00158576
0.00139816
0.00117377
0.00101891
0.000863858
0.000743045
0.00063776
0.000545834
0.000475738
0.000411012
0.000365857
0.000328281
0.000304281
0.000289807
0.000282917
0.00028548
0.000292284
0.000306685
0.000323688
0.000345192
0.000368258
0.000393898
0.000419348
0.000446594
0.000473349
0.000500892
0.00052744
0.000555098
0.000580826
0.000605039
0.000629393
0.000648976
0.000668113
0.000684616
0.000697924
0.000707336
0.000720372
0.000727885
0.000732691
0.000738267
0.000748101
0.000751835
0.000756248
0.000757241
0.000763884
0.000765975
0.000771201
0.000776493
0.000782372
0.000787605
0.0007943
0.000801337
0.00080136
0.000805054
0.000808221
0.000808907
0.000808569
0.000811922
0.000813339
0.000813555
0.000813259
0.00081704
0.000821719
0.000828903
0.000833393
0.000839765
0.000845194
0.000849993
0.000855155
0.000860163
0.000864306
0.000867744
0.000873129
0.000876168
0.000882614
0.000885879
0.000888114
0.000892194
0.000894923
0.000894171
0.00089432
0.000898769
0.000900836
0.000899449
0.000903763
0.00090043
0.000893997
0.000893385
0.000896472
0.000894589
0.000891447
0.000889422
0.000889881
0.000891132
0.000892872
0.000894641
0.000891727
0.000891403
0.000893193
0.000893653
0.000894871
0.000897168
0.00089819
0.000897039
0.000899575
0.000901794
0.000899266
0.000902116
0.000903222
0.00090174
0.000904675
0.000906622
0.000903128
0.000899309
0.000899804
0.000898542
0.000899993
0.000900777
0.000898282
0.000898393
0.000899087
0.000899488
0.000901548
0.000902173
0.000898507
0.000899687
0.0009003
0.000897161
0.00089637
0.000895103
0.000896811
0.000896452
0.000895043
0.000895311
0.0008951
0.000895995
0.000897354
0.000897162
0.000897744
0.000895936
0.000895806
0.000896575
0.000894663
0.000895063
0.000894729
0.000895259
0.000896151
0.000895293
0.000893529
0.000894785
0.000894071
0.000894899
0.000893944
0.000895571
0.000893596
0.000893508
0.000893355
0.000894228
0.000896177
0.000896406
0.000896809
0.000895108
0.000894959
0.000895988
0.000894554
0.000895847
0.000895584
0.000896432
0.000895166
0.000895095
0.000896168
0.000895072
0.000894988
0.000892602
0.000894137
0.000894151
0.000895247
0.000894754
0.000893416
0.000895919
0.000894695
0.000893762
0.000896763
0.000894691
0.000894395
0.000894889
0.000892757
0.000892928
0.00089266
0.000893661
0.000895148
0.000892986
0.000894756
0.000895037
0.000895248
0.000896089
0.00236271
0.0024002
0.00225633
0.00212577
0.00188578
0.00172091
0.0015127
0.00135683
0.00119555
0.00106067
0.000938643
0.000825129
0.000734546
0.000641684
0.000573999
0.000504453
0.000454446
0.000407806
0.000375779
0.000351455
0.000335418
0.000328453
0.000327523
0.000333346
0.000343933
0.000359493
0.000377438
0.000398955
0.000421872
0.000446845
0.00047212
0.000499078
0.000525633
0.000550724
0.000576716
0.000598596
0.000619421
0.000638496
0.000653991
0.000665815
0.000679386
0.000689458
0.000693334
0.000701542
0.000710113
0.000714804
0.000718671
0.00072381
0.000729549
0.000735178
0.000742904
0.000748246
0.000754955
0.000761123
0.000769762
0.000784902
0.000789597
0.000791445
0.000798293
0.00079816
0.000799703
0.000797968
0.000798457
0.000800327
0.000799183
0.000800548
0.000804976
0.000814137
0.000819463
0.000826574
0.000833073
0.000838828
0.000844816
0.000850904
0.000856601
0.00086091
0.000867344
0.000870987
0.00087857
0.000882163
0.000886332
0.000889751
0.000897308
0.000899518
0.00090199
0.000904429
0.00090867
0.000909902
0.000913566
0.000909405
0.000902233
0.000904262
0.000906472
0.000903759
0.000899908
0.000898181
0.000898238
0.000901813
0.000902441
0.000901154
0.000900073
0.000901863
0.000903479
0.000904241
0.000905685
0.000906864
0.000907782
0.000907491
0.00090551
0.000911832
0.000912143
0.000914579
0.000917178
0.000916391
0.000916655
0.000921798
0.000917323
0.000914256
0.000917187
0.000913535
0.000916451
0.000916783
0.000913617
0.000914961
0.000915482
0.000914085
0.000915431
0.000917242
0.000913459
0.000914982
0.000915436
0.000912329
0.00091201
0.000909839
0.000911466
0.000911727
0.000909684
0.000909705
0.000910378
0.000908664
0.000911881
0.000911603
0.000912248
0.000909729
0.0009099
0.000910858
0.000908667
0.000909756
0.000909995
0.000909089
0.000910139
0.000907434
0.000908121
0.000908089
0.000908982
0.000909755
0.000908669
0.000909237
0.000906161
0.000907523
0.000907271
0.000907016
0.000909692
0.000910212
0.000910548
0.000908764
0.000907644
0.000910581
0.000908316
0.000909323
0.000908669
0.00091054
0.000909413
0.00090834
0.000910179
0.000908843
0.000908565
0.000906428
0.000905916
0.000907796
0.000908572
0.000907979
0.000906363
0.000909316
0.000907048
0.000908318
0.000910329
0.000906326
0.000907864
0.000907772
0.000906161
0.000908422
0.00090724
0.000907032
0.000909529
0.000906827
0.000908965
0.000907491
0.000908653
0.000910209
0.00235716
0.0023988
0.00234231
0.00226499
0.00210307
0.00197479
0.0018009
0.0016597
0.00150907
0.00137569
0.00125178
0.00113031
0.00103104
0.000922961
0.000842345
0.000752313
0.00068358
0.000612766
0.000558661
0.000503747
0.000464046
0.000430442
0.000405173
0.000387424
0.000377253
0.000373618
0.000375405
0.000382787
0.00039421
0.000409625
0.000427616
0.000448481
0.00047118
0.000493491
0.000517638
0.000539509
0.000559912
0.00057978
0.000596529
0.00060965
0.000623311
0.000635218
0.000641271
0.000649258
0.000656723
0.000663429
0.000665644
0.000673062
0.000678169
0.000683534
0.000693701
0.000703226
0.000712411
0.000716152
0.000724429
0.00074123
0.000754862
0.000762496
0.000768371
0.000769902
0.000771302
0.00077106
0.000771096
0.000768238
0.000772116
0.000767984
0.000770926
0.000781511
0.000787687
0.000795372
0.000802858
0.000809541
0.000816401
0.000823293
0.000830663
0.000835856
0.000843563
0.000847562
0.000856038
0.000860979
0.000866584
0.000870015
0.000876303
0.000882574
0.000887619
0.000892498
0.000896257
0.000904224
0.000908181
0.000902102
0.000898522
0.000895793
0.000899151
0.000898222
0.000892988
0.000890945
0.000894438
0.00089459
0.000894978
0.000890146
0.00089308
0.00089349
0.000895281
0.000895877
0.000894722
0.000895746
0.000901043
0.000898472
0.000896148
0.000899824
0.000906478
0.000906053
0.000912219
0.000911791
0.000915182
0.000919533
0.00091524
0.000917102
0.000919203
0.000916811
0.000918316
0.000915754
0.000912004
0.000914096
0.000915685
0.000914281
0.000913491
0.000917478
0.000914088
0.000915451
0.000913025
0.000911554
0.000911211
0.000911623
0.000909699
0.000912093
0.000910697
0.000910444
0.000907791
0.000906693
0.000910409
0.000910494
0.000911491
0.000908302
0.000908876
0.000909961
0.000908101
0.000905649
0.000910475
0.000905966
0.000908338
0.000908291
0.000906817
0.000904206
0.000908424
0.000909222
0.00090876
0.00090595
0.000904894
0.000904214
0.000906582
0.000903323
0.000908868
0.00090914
0.000909065
0.000907984
0.000905341
0.000909986
0.0009066
0.000907103
0.000904972
0.000910416
0.00090627
0.000907902
0.000908485
0.000907665
0.000907083
0.000905876
0.000907128
0.000905588
0.000903791
0.000907397
0.000906183
0.00090788
0.000906258
0.000906715
0.000909518
0.000902874
0.000905282
0.000904198
0.000903399
0.000907701
0.000905551
0.000905805
0.000909091
0.000905796
0.000906127
0.00090712
0.000904857
0.000909293
0.00235426
0.00238572
0.00237723
0.00234006
0.00224266
0.00215551
0.00202378
0.00190734
0.00177856
0.00165802
0.00154313
0.00142559
0.00132818
0.0012174
0.00113241
0.00103411
0.000957989
0.000872529
0.000806117
0.000732549
0.000675851
0.000618
0.000569711
0.000528129
0.000494533
0.000466513
0.000446161
0.000432091
0.000424239
0.000421925
0.000424618
0.000431846
0.000443266
0.000456659
0.000472982
0.000490168
0.000506171
0.000523346
0.000538582
0.000551115
0.000563244
0.000575289
0.000582068
0.000590299
0.000596365
0.000604332
0.00060762
0.00061543
0.000621216
0.000629085
0.000638987
0.000648289
0.000658543
0.00066593
0.00067564
0.000691569
0.000708107
0.000715836
0.000715931
0.000719964
0.000731751
0.000731347
0.000732334
0.000733016
0.000732683
0.000729839
0.000727339
0.000736092
0.000742507
0.000750302
0.000758504
0.00076597