/*--------------------------------*- C++ -*----------------------------------*\
  =========                 |
  \\      /  F ield         | OpenFOAM: The Open Source CFD Toolbox
   \\    /   O peration     | Website:  https://openfoam.org
    \\  /    A nd           | Version:  12
     \\/     M anipulation  |
\*---------------------------------------------------------------------------*/
FoamFile
{
    format      ascii;
    class       volScalarField;
    location    "100";
    object      p;
}
// * * * * * * * * * * * * * * * * * * * * * * * * * * * * * * * * * * * * * //

dimensions      [0 2 -2 0 0 0 0];

internalField   nonuniform List<scalar> 
20000
(
0.241711
0.120441
0.0941011
0.0922537
0.0899197
0.0878495
0.0864925
0.0853198
0.0842852
0.0832462
0.0822699
0.0813049
0.0803855
0.0795259
0.0786887
0.0778919
0.0771014
0.0763268
0.0755553
0.0748099
0.0740768
0.0733425
0.0726191
0.0719
0.0712013
0.0704972
0.0698057
0.0691281
0.0684492
0.0677692
0.067093
0.0664131
0.0657267
0.0650402
0.0643762
0.0637069
0.0630689
0.0624622
0.0618798
0.0613287
0.0608077
0.060324
0.0598289
0.0593519
0.058882
0.0584235
0.0579652
0.0575195
0.0570692
0.056596
0.0561329
0.055649
0.0551624
0.0546556
0.054136
0.0536225
0.0531275
0.0526148
0.0520969
0.0515813
0.0510791
0.0505909
0.0500877
0.0495913
0.0491047
0.0486208
0.0481546
0.0477179
0.0472613
0.0468301
0.0464005
0.0459789
0.0455766
0.0451679
0.0447854
0.0443982
0.0440374
0.0436636
0.04327
0.0429088
0.0425081
0.0421131
0.0417261
0.0413445
0.040968
0.0405573
0.0401953
0.0398399
0.0394937
0.0391613
0.0387832
0.0383753
0.0379784
0.0375992
0.0372493
0.0368689
0.0364763
0.0361146
0.0357375
0.0353788
0.0350265
0.0345893
0.0341148
0.0336378
0.0331056
0.0326174
0.0321397
0.0316936
0.0313495
0.0310338
0.0307253
0.0302986
0.0298049
0.0293733
0.0290079
0.0287827
0.0285609
0.0282937
0.0279303
0.027525
0.027129
0.0267169
0.0262654
0.0259083
0.0255964
0.0251684
0.0247505
0.0243135
0.0238644
0.0234087
0.02297
0.0225463
0.0221826
0.0218409
0.0215759
0.0212111
0.0208255
0.0206248
0.0203964
0.0200958
0.0197259
0.0193648
0.0189864
0.0186005
0.0182871
0.0179295
0.0175228
0.0170878
0.0166733
0.0162454
0.0157763
0.0154198
0.0149753
0.0145588
0.0141419
0.013703
0.0134145
0.0131441
0.0129158
0.0125078
0.0120053
0.0116586
0.0113332
0.0110394
0.0106725
0.0103108
0.0100696
0.009747
0.0093601
0.00911886
0.00870978
0.00837261
0.00816536
0.00777627
0.00746314
0.00725501
0.00689122
0.006566
0.00628828
0.0058954
0.00557841
0.00524782
0.00490111
0.00475689
0.00450354
0.00418138
0.00390984
0.00360253
0.00332191
0.00296913
0.00262221
0.00235046
0.00209664
0.0019191
0.00156948
0.00120607
0.00104428
0.000710925
0.000494264
0.000260359
0.2053
0.118446
0.0947693
0.0927092
0.0901873
0.0880267
0.086633
0.085434
0.0843816
0.0833255
0.0823394
0.0813635
0.0804378
0.0795718
0.0787302
0.0779292
0.0771349
0.0763574
0.0755832
0.0748356
0.0741005
0.0733646
0.0726395
0.071919
0.071219
0.0705136
0.069821
0.0691424
0.0684629
0.0677821
0.0671055
0.0664253
0.0657387
0.0650518
0.0643874
0.0637178
0.0630792
0.0624717
0.0618886
0.0613368
0.0608148
0.0603305
0.0598349
0.0593572
0.058887
0.0584282
0.0579696
0.0575234
0.0570728
0.0565994
0.0561361
0.0556523
0.0551657
0.0546589
0.0541391
0.0536254
0.0531304
0.0526176
0.0520996
0.051584
0.0510815
0.0505935
0.0500904
0.0495937
0.0491072
0.0486232
0.0481566
0.0477203
0.0472638
0.0468326
0.0464031
0.0459814
0.0455792
0.0451704
0.0447877
0.0444005
0.0440394
0.0436658
0.0432723
0.0429111
0.0425104
0.0421154
0.0417285
0.0413463
0.0409696
0.0405591
0.0401969
0.0398416
0.0394951
0.0391627
0.0387846
0.0383767
0.0379798
0.0376007
0.0372506
0.03687
0.036477
0.036115
0.0357381
0.0353794
0.0350274
0.0345911
0.0341167
0.0336395
0.033108
0.0326193
0.0321405
0.0316947
0.0313498
0.0310347
0.0307278
0.0302996
0.0298042
0.0293724
0.0290073
0.0287831
0.0285621
0.0282954
0.0279314
0.0275252
0.0271304
0.0267185
0.0262655
0.0259071
0.0255957
0.0251684
0.0247508
0.024315
0.0238661
0.0234096
0.0229704
0.0225475
0.0221816
0.0218398
0.0215769
0.0212118
0.0208252
0.0206238
0.0203957
0.0200961
0.0197267
0.0193647
0.0189857
0.0186004
0.0182872
0.0179311
0.0175241
0.0170877
0.0166742
0.0162462
0.0157769
0.0154199
0.0149752
0.0145584
0.0141412
0.0137033
0.0134145
0.0131438
0.0129173
0.0125088
0.0120056
0.0116587
0.0113334
0.0110393
0.010672
0.0103117
0.0100703
0.00974644
0.00935894
0.00911792
0.00870947
0.0083727
0.00816558
0.00777554
0.00746337
0.00725574
0.0068914
0.00656545
0.00628718
0.00589564
0.00557879
0.00524747
0.00490151
0.00475734
0.00450375
0.00418218
0.0039104
0.00360223
0.00332128
0.00296849
0.00262161
0.00235031
0.00209717
0.00192029
0.00157035
0.00120602
0.00104422
0.000711254
0.000494173
0.000259818
0.189807
0.120528
0.0963463
0.0934288
0.0906199
0.0883412
0.0868926
0.0856455
0.0845623
0.083475
0.0824716
0.0814761
0.0805404
0.0796619
0.0788136
0.0780038
0.0772026
0.0764191
0.0756396
0.0748879
0.0741485
0.073409
0.0726808
0.0719575
0.0712548
0.070547
0.0698523
0.0691716
0.0684906
0.0678083
0.0671303
0.0664493
0.0657616
0.0650734
0.0644078
0.0637369
0.0630966
0.0624874
0.0619031
0.0613497
0.0608259
0.0603406
0.059844
0.0593655
0.0588948
0.0584356
0.0579766
0.0575295
0.0570783
0.0566048
0.0561412
0.0556575
0.055171
0.0546643
0.0541443
0.0536304
0.0531356
0.0526227
0.0521047
0.0515889
0.0510862
0.0505986
0.0500956
0.0495984
0.0491122
0.048628
0.0481607
0.0477248
0.0472684
0.046837
0.0464075
0.0459855
0.0455833
0.045174
0.0447916
0.0444046
0.0440428
0.043669
0.0432754
0.0429138
0.0425131
0.0421189
0.0417321
0.0413487
0.0409713
0.0405616
0.0401995
0.039844
0.0394974
0.0391649
0.0387864
0.0383782
0.0379817
0.0376031
0.0372527
0.0368713
0.0364777
0.0361151
0.0357388
0.0353806
0.0350292
0.0345939
0.0341197
0.0336426
0.0331118
0.0326223
0.0321418
0.0316959
0.0313498
0.0310359
0.0307319
0.030301
0.0298027
0.0293702
0.0290053
0.0287839
0.0285642
0.0282988
0.0279332
0.0275248
0.0271329
0.026721
0.026265
0.0259052
0.0255949
0.0251687
0.0247509
0.0243172
0.0238693
0.0234109
0.0229707
0.0225492
0.0221792
0.0218377
0.0215789
0.0212129
0.0208247
0.020622
0.0203947
0.020097
0.0197276
0.0193646
0.0189852
0.0186001
0.0182873
0.0179346
0.0175271
0.0170871
0.0166755
0.0162479
0.0157779
0.0154203
0.014975
0.014558
0.0141398
0.0137029
0.0134142
0.0131433
0.0129206
0.012511
0.0120057
0.0116587
0.0113339
0.0110398
0.0106712
0.0103124
0.0100711
0.00974549
0.00935717
0.00911723
0.00870794
0.00837251
0.00816693
0.00777348
0.00746345
0.00725782
0.00689137
0.00656466
0.00628539
0.0058955
0.00557977
0.00524705
0.00490109
0.00475879
0.00450445
0.00418289
0.0039116
0.00360166
0.0033203
0.00296749
0.00262012
0.00234968
0.00209793
0.00192253
0.00157195
0.00120552
0.00104454
0.000711051
0.000494614
0.00026017
0.184296
0.121623
0.0982766
0.0941498
0.0910666
0.0886933
0.0871823
0.0858865
0.0847723
0.0836557
0.0826354
0.0816206
0.0806746
0.0797827
0.078926
0.078105
0.0772955
0.0765045
0.0757185
0.0749614
0.0742161
0.073472
0.0727396
0.0720127
0.0713061
0.070595
0.0698975
0.0692141
0.0685308
0.0678466
0.0671664
0.0664836
0.065794
0.0651039
0.0644359
0.0637626
0.0631197
0.0625079
0.0619216
0.0613661
0.0608397
0.0603531
0.0598554
0.0593757
0.0589048
0.058445
0.0579858
0.0575374
0.0570854
0.0566116
0.0561478
0.0556645
0.0551779
0.0546715
0.0541511
0.0536371
0.0531427
0.0526296
0.0521117
0.0515955
0.0510927
0.0506057
0.0501027
0.049605
0.049119
0.0486346
0.0481665
0.0477312
0.0472747
0.046843
0.0464133
0.0459907
0.0455884
0.0451782
0.0447966
0.0444102
0.0440475
0.0436727
0.043279
0.0429168
0.0425158
0.0421232
0.0417364
0.0413512
0.0409728
0.0405643
0.0402027
0.0398468
0.0395003
0.0391678
0.0387883
0.0383793
0.0379837
0.0376065
0.0372554
0.0368724
0.0364781
0.0361147
0.0357396
0.0353825
0.0350316
0.0345976
0.0341237
0.0336468
0.0331167
0.0326259
0.032143
0.0316972
0.031349
0.0310371
0.0307374
0.030303
0.0297994
0.0293653
0.0290022
0.028785
0.0285676
0.0283047
0.0279358
0.0275237
0.0271366
0.0267229
0.0262632
0.0259032
0.0255944
0.0251706
0.0247508
0.02432
0.0238738
0.0234121
0.0229706
0.02255
0.022175
0.021835
0.0215819
0.0212142
0.0208228
0.0206193
0.0203938
0.0200987
0.0197276
0.0193637
0.018985
0.0186006
0.0182876
0.0179392
0.017532
0.0170859
0.0166759
0.0162504
0.0157799
0.0154225
0.0149749
0.0145566
0.0141369
0.0137016
0.0134142
0.0131427
0.0129265
0.0125142
0.0120053
0.0116591
0.0113349
0.0110413
0.0106697
0.0103109
0.0100727
0.00974382
0.00935473
0.00911739
0.00870383
0.0083713
0.00817018
0.00777043
0.0074623
0.00726124
0.00689144
0.00656378
0.0062837
0.00589372
0.00558109
0.00524762
0.00489859
0.00476205
0.00450637
0.00418314
0.00391391
0.0036012
0.00331848
0.00296619
0.00261823
0.00234791
0.0020982
0.00192592
0.00157399
0.00120434
0.00104611
0.000709755
0.00049664
0.000262199
0.178316
0.121077
0.100073
0.0950378
0.0914924
0.0890116
0.087421
0.086091
0.0849572
0.0838267
0.0827979
0.0817699
0.0808153
0.0799125
0.0790472
0.0782156
0.0773987
0.0766002
0.0758082
0.0750457
0.0742939
0.0735454
0.0728086
0.0720778
0.0713668
0.0706521
0.0699516
0.0692653
0.0685793
0.0678929
0.0672099
0.0665247
0.0658322
0.0651398
0.0644683
0.063792
0.0631458
0.0625307
0.0619419
0.0613837
0.0608545
0.0603664
0.0598675
0.0593866
0.0589156
0.0584555
0.0579962
0.0575464
0.0570935
0.0566192
0.0561552
0.0556724
0.0551856
0.0546795
0.0541584
0.0536444
0.0531508
0.0526376
0.0521197
0.051603
0.0511
0.0506141
0.0501111
0.0496128
0.0491267
0.0486421
0.0481735
0.0477386
0.047282
0.0468499
0.0464197
0.0459966
0.0455937
0.0451828
0.0448024
0.0444166
0.0440527
0.0436765
0.0432828
0.0429197
0.0425181
0.0421275
0.0417408
0.0413536
0.0409737
0.040567
0.0402063
0.0398496
0.0395035
0.0391709
0.0387899
0.0383797
0.0379857
0.0376104
0.0372582
0.036873
0.0364781
0.036114
0.0357407
0.0353851
0.0350339
0.0346015
0.0341283
0.0336518
0.0331222
0.0326296
0.0321442
0.0316984
0.0313472
0.0310377
0.0307441
0.0303051
0.0297937
0.0293578
0.0289974
0.0287869
0.0285727
0.0283122
0.0279384
0.0275215
0.0271414
0.0267232
0.0262598
0.0259007
0.0255944
0.0251757
0.0247516
0.0243223
0.0238783
0.0234132
0.0229697
0.022548
0.0221699
0.021833
0.0215849
0.0212154
0.0208191
0.0206151
0.0203946
0.0201019
0.0197261
0.0193619
0.018985
0.0186032
0.0182887
0.0179434
0.0175389
0.0170847
0.0166741
0.0162529
0.0157835
0.015427
0.0149755
0.0145551
0.0141315
0.0136989
0.0134152
0.0131422
0.0129346
0.012518
0.0120041
0.0116605
0.0113365
0.0110437
0.0106674
0.0103056
0.0100758
0.00974125
0.0093531
0.00912019
0.00869625
0.00836803
0.00817491
0.00776717
0.00745931
0.0072672
0.00689126
0.00656207
0.00628338
0.00588948
0.00558227
0.00524793
0.00489493
0.00476758
0.00450852
0.0041824
0.00391746
0.0036012
0.00331589
0.00296498
0.00261702
0.0023451
0.00209701
0.00192994
0.00157615
0.00120293
0.00104779
0.000708808
0.000501405
0.000264276
0.171837
0.120402
0.101243
0.0960699
0.0919935
0.0893131
0.0876223
0.0862561
0.0850983
0.0839632
0.0829345
0.0819031
0.0809452
0.0800362
0.0791647
0.0783255
0.0775036
0.0766987
0.0759019
0.0751345
0.0743771
0.0736245
0.0728836
0.0721492
0.0714335
0.0707154
0.070012
0.0693226
0.0686338
0.0679452
0.0672592
0.066571
0.0658751
0.0651804
0.0645042
0.0638247
0.0631748
0.0625558
0.0619641
0.0614025
0.0608704
0.0603807
0.0598804
0.0593982
0.0589273
0.0584673
0.0580081
0.0575564
0.0571025
0.056628
0.0561635
0.0556811
0.055194
0.0546881
0.054166
0.0536523
0.0531596
0.0526462
0.0521285
0.0516109
0.0511077
0.0506229
0.0501201
0.0496212
0.0491351
0.0486502
0.0481814
0.0477467
0.0472901
0.0468577
0.0464266
0.0460032
0.0455994
0.0451881
0.044809
0.0444234
0.0440584
0.0436805
0.0432871
0.0429227
0.0425203
0.0421319
0.0417451
0.0413556
0.0409741
0.0405703
0.0402101
0.0398521
0.0395069
0.0391741
0.0387909
0.0383794
0.0379879
0.0376149
0.0372604
0.0368728
0.0364778
0.0361132
0.0357423
0.0353885
0.0350361
0.0346054
0.0341343
0.0336583
0.0331285
0.0326327
0.0321443
0.0316987
0.0313442
0.031038
0.0307528
0.0303079
0.0297835
0.0293461
0.0289924
0.0287919
0.0285801
0.0283208
0.0279403
0.0275179
0.0271473
0.0267233
0.0262561
0.0258971
0.0255942
0.0251833
0.0247538
0.0243242
0.0238816
0.0234135
0.0229677
0.0225432
0.0221639
0.0218321
0.0215872
0.0212161
0.0208135
0.020608
0.0203962
0.020107
0.0197247
0.0193601
0.018983
0.0186076
0.0182926
0.0179462
0.0175463
0.0170843
0.0166706
0.0162548
0.015788
0.0154338
0.0149771
0.0145535
0.0141228
0.0136941
0.0134186
0.0131423
0.0129434
0.0125214
0.0120023
0.0116638
0.0113395
0.0110453
0.0106635
0.0102986
0.0100805
0.00973845
0.00934978
0.00912441
0.0086873
0.00836077
0.00818079
0.00776499
0.00745533
0.00727356
0.00689106
0.00655962
0.0062829
0.00588553
0.00558357
0.00524473
0.00489226
0.00477625
0.00450905
0.00418134
0.00392448
0.00360238
0.0033109
0.00296365
0.00261692
0.00234166
0.00209342
0.00193408
0.0015791
0.00120121
0.00104868
0.000708024
0.000508534
0.000267687
0.165837
0.120252
0.10198
0.0967384
0.0925426
0.0896737
0.087845
0.0864154
0.0852159
0.084067
0.0830331
0.0820027
0.0810476
0.0801408
0.0792683
0.0784265
0.0776031
0.0767939
0.0759939
0.0752231
0.0744617
0.0737051
0.0729609
0.0722234
0.0715036
0.0707822
0.0700763
0.069384
0.0686927
0.068002
0.0673128
0.0666215
0.0659218
0.0652247
0.0645431
0.0638606
0.0632065
0.0625831
0.0619883
0.0614223
0.0608874
0.0603956
0.0598939
0.0594106
0.05894
0.0584806
0.0580215
0.057567
0.0571128
0.0566381
0.0561726
0.0556906
0.055203
0.0546971
0.0541736
0.0536605
0.0531685
0.0526551
0.0521378
0.051619
0.0511153
0.0506319
0.0501295
0.0496303
0.049144
0.048659
0.0481902
0.0477554
0.0472991
0.0468664
0.0464339
0.0460105
0.0456057
0.0451941
0.0448161
0.0444308
0.0440646
0.0436849
0.0432922
0.042926
0.0425226
0.0421365
0.041749
0.041357
0.0409746
0.0405744
0.0402138
0.0398545
0.0395107
0.0391766
0.038791
0.0383788
0.0379907
0.0376197
0.0372617
0.0368717
0.0364774
0.0361131
0.035745
0.0353926
0.0350377
0.034609
0.0341423
0.0336668
0.0331354
0.0326349
0.0321425
0.0316968
0.0313403
0.0310382
0.0307638
0.0303125
0.0297697
0.0293292
0.028988
0.0288011
0.028589
0.0283283
0.0279406
0.0275129
0.0271547
0.0267237
0.026252
0.0258932
0.0255939
0.0251914
0.0247575
0.0243261
0.0238822
0.0234121
0.0229637
0.022537
0.0221577
0.0218317
0.0215896
0.0212165
0.0208072
0.0205979
0.0203988
0.020114
0.0197245
0.0193588
0.0189799
0.0186147
0.018298
0.0179484
0.0175531
0.0170842
0.0166678
0.0162555
0.0157947
0.0154401
0.0149796
0.0145544
0.0141109
0.0136858
0.0134243
0.0131417
0.0129512
0.0125252
0.0120004
0.01167
0.0113427
0.0110437
0.0106593
0.010291
0.0100847
0.00973604
0.00934727
0.00912868
0.00867732
0.00835266
0.00818715
0.00776241
0.00745077
0.00728019
0.00688992
0.00655736
0.00628153
0.00588352
0.00558669
0.00523636
0.00489183
0.00478844
0.00450499
0.00417832
0.00393495
0.00360489
0.00330422
0.00296192
0.00261625
0.00233962
0.00208812
0.00193738
0.00158306
0.00119951
0.00104814
0.000707424
0.000518725
0.00027178
0.160397
0.119997
0.102818
0.0971801
0.0929339
0.0901157
0.0881319
0.0865866
0.0853399
0.0841663
0.0831167
0.082079
0.0811214
0.0802169
0.0793459
0.0785064
0.0776868
0.0768772
0.0760773
0.0753055
0.0745423
0.0737831
0.0730365
0.0722971
0.0715743
0.0708499
0.0701421
0.0694474
0.0687539
0.0680611
0.067369
0.0666748
0.065971
0.0652722
0.0645845
0.0638991
0.063241
0.0626138
0.0620148
0.0614439
0.0609068
0.0604115
0.0599086
0.0594248
0.0589547
0.0584963
0.0580361
0.0575778
0.0571247
0.0566498
0.0561826
0.0557009
0.0552132
0.0547069
0.0541817
0.0536694
0.0531773
0.0526639
0.0521472
0.0516269
0.0511222
0.05064
0.0501384
0.0496395
0.0491533
0.0486683
0.0481998
0.0477646
0.0473087
0.0468757
0.0464418
0.0460187
0.0456128
0.0452009
0.0448235
0.044439
0.044072
0.0436904
0.0432985
0.0429295
0.0425258
0.0421416
0.0417522
0.0413578
0.0409758
0.0405801
0.0402172
0.0398571
0.0395149
0.0391778
0.0387899
0.0383781
0.0379942
0.0376244
0.0372618
0.0368699
0.036477
0.0361142
0.0357492
0.035397
0.0350382
0.034612
0.0341525
0.0336787
0.0331432
0.032634
0.0321371
0.0316902
0.0313364
0.0310428
0.0307805
0.0303209
0.0297553
0.0293087
0.0289824
0.0288104
0.0285958
0.0283309
0.027939
0.0275099
0.0271658
0.0267242
0.0262473
0.025891
0.025595
0.0252008
0.0247618
0.0243238
0.0238766
0.0234101
0.0229593
0.022529
0.0221519
0.0218323
0.0215901
0.0212159
0.0208007
0.0205884
0.0204037
0.020117
0.0197247
0.0193621
0.0189742
0.0186192
0.0183052
0.0179516
0.0175576
0.0170859
0.0166679
0.016253
0.0158017
0.0154474
0.0149834
0.0145574
0.0140976
0.0136763
0.0134319
0.0131428
0.0129559
0.0125286
0.012003
0.0116775
0.0113442
0.0110385
0.0106543
0.0102824
0.0100871
0.00973578
0.00934602
0.00913224
0.00866694
0.00834494
0.00819021
0.00775888
0.00744841
0.00728495
0.00688752
0.00655711
0.00627803
0.00588249
0.00559266
0.0052262
0.00489314
0.00480202
0.00450012
0.0041702
0.00394967
0.00360902
0.00329335
0.00296073
0.00261508
0.0023369
0.00208392
0.00193983
0.00158644
0.00119807
0.00104588
0.000707603
0.000533221
0.000275627
0.155299
0.119668
0.103526
0.0977199
0.0932307
0.0904265
0.0884533
0.0867933
0.0854825
0.0842735
0.0832068
0.0821547
0.0811876
0.0802787
0.0794025
0.0785625
0.0777473
0.0769394
0.0761436
0.075374
0.0746126
0.0738532
0.0731063
0.0723666
0.0716424
0.0709157
0.0702066
0.0695101
0.0688149
0.0681205
0.0674258
0.0667295
0.0660219
0.0653217
0.0646279
0.0639392
0.063278
0.0626474
0.0620429
0.0614694
0.0609296
0.060428
0.0599251
0.059442
0.0589721
0.0585132
0.0580504
0.0575888
0.0571385
0.0566628
0.0561944
0.0557119
0.0552247
0.0547176
0.0541904
0.0536783
0.0531846
0.0526721
0.0521562
0.0516344
0.0511279
0.0506468
0.0501461
0.0496482
0.0491628
0.0486779
0.0482101
0.0477743
0.0473188
0.0468858
0.0464504
0.0460275
0.045621
0.0452085
0.0448312
0.0444479
0.0440802
0.0436982
0.043306
0.0429334
0.0425308
0.0421471
0.0417546
0.0413583
0.0409784
0.0405874
0.0402207
0.0398596
0.0395187
0.0391772
0.0387876
0.0383783
0.0379978
0.0376276
0.0372611
0.0368682
0.0364778
0.0361166
0.035754
0.035401
0.0350379
0.0346145
0.0341627
0.0336925
0.0331525
0.0326266
0.0321265
0.0316811
0.0313358
0.0310542
0.0308039
0.0303319
0.0297422
0.029287
0.0289731
0.0288149
0.0285997
0.0283323
0.0279382
0.0275126
0.0271812
0.0267236
0.0262406
0.0258911
0.0255984
0.0252116
0.0247663
0.024315
0.0238623
0.0234069
0.0229599
0.0225213
0.0221439
0.0218321
0.0215862
0.0212151
0.0207961
0.0205803
0.0204131
0.0201146
0.0197204
0.0193679
0.0189706
0.0186236
0.0183084
0.017958
0.0175625
0.0170876
0.0166731
0.0162442
0.0158027
0.0154582
0.0149887
0.0145627
0.0140863
0.0136642
0.0134403
0.0131478
0.0129568
0.01253
0.0120108
0.011683
0.0113419
0.0110345
0.0106513
0.0102742
0.0100869
0.00973538
0.00934702
0.00913556
0.00865754
0.00834014
0.00818937
0.00775294
0.00744983
0.00728687
0.00688492
0.00656102
0.00626864
0.0058802
0.005603
0.00521612
0.00489384
0.00481629
0.00449694
0.00415653
0.00397013
0.00361486
0.0032758
0.00296206
0.00261421
0.00233256
0.00208047
0.0019398
0.00158951
0.00119885
0.00103886
0.000706707
0.000553882
0.000279608
0.150467
0.119272
0.104082
0.0982144
0.0936246
0.0906598
0.088672
0.0870159
0.0856617
0.0843966
0.0833053
0.0822361
0.0812591
0.0803432
0.0794565
0.078611
0.0777953
0.0769841
0.076191
0.0754232
0.0746657
0.0739082
0.0731641
0.0724266
0.0717035
0.0709758
0.0702668
0.0695693
0.0688734
0.0681778
0.0674809
0.0667836
0.0660731
0.0653721
0.0646729
0.0639807
0.0633173
0.0626824
0.062073
0.0614996
0.0609562
0.0604481
0.0599448
0.0594622
0.0589909
0.0585287
0.0580639
0.0576013
0.0571528
0.0566773
0.0562087
0.0557241
0.0552383
0.0547298
0.0542011
0.0536882
0.0531911
0.0526798
0.0521646
0.0516405
0.0511315
0.0506516
0.0501517
0.0496553
0.0491718
0.048688
0.0482211
0.0477844
0.0473293
0.0468963
0.0464595
0.0460367
0.0456301
0.0452172
0.0448397
0.0444572
0.0440887
0.0437081
0.0433152
0.042939
0.0425377
0.0421535
0.0417575
0.0413596
0.0409836
0.0405959
0.0402242
0.0398622
0.0395215
0.0391745
0.0387849
0.0383804
0.0380009
0.0376285
0.03726
0.0368674
0.0364793
0.0361198
0.0357584
0.0354038
0.0350381
0.0346174
0.0341733
0.0337077
0.033161
0.0326143
0.03211
0.0316686
0.0313378
0.0310724
0.0308318
0.0303426
0.0297287
0.0292666
0.0289635
0.0288166
0.0286
0.0283316
0.0279361
0.0275194
0.0271992
0.0267194
0.0262328
0.0258973
0.0256064
0.0252223
0.0247707
0.0243017
0.0238367
0.0233999
0.0229664
0.0225179
0.0221373
0.0218284
0.0215748
0.0212121
0.0207943
0.020573
0.0204246
0.020105
0.0197091
0.0193746
0.0189714
0.0186313
0.0183093
0.0179655
0.0175655
0.0170857
0.0166785
0.0162355
0.0158036
0.0154671
0.0149951
0.0145697
0.0140801
0.0136506
0.0134484
0.0131569
0.0129512
0.0125293
0.0120225
0.0116862
0.0113395
0.0110307
0.01065
0.0102663
0.0100839
0.00973712
0.00935111
0.00913484
0.00864924
0.00833788
0.00818808
0.00774585
0.00745054
0.00728554
0.00688473
0.00657186
0.0062504
0.00587544
0.00561503
0.00520909
0.00489371
0.00482947
0.00449671
0.00414565
0.00399129
0.00361661
0.0032532
0.00296848
0.00261299
0.00232768
0.00208173
0.00193488
0.00159146
0.00120605
0.00102388
0.000702631
0.000580192
0.00028402
0.145895
0.118773
0.104515
0.0986441
0.0939958
0.0909655
0.0888447
0.0871986
0.0858069
0.084535
0.0834186
0.0823257
0.0813339
0.080413
0.0795142
0.0786634
0.0778445
0.0770265
0.0762323
0.075462
0.0747054
0.0739475
0.0732064
0.0724717
0.0717519
0.071025
0.0703182
0.0696212
0.0689261
0.0682305
0.0675323
0.0668353
0.0661234
0.0654224
0.0647192
0.064024
0.063359
0.0627194
0.0621054
0.061532
0.0609848
0.0604705
0.0599667
0.0594845
0.05901
0.0585432
0.0580781
0.0576161
0.0571675
0.0566936
0.0562242
0.055738
0.055252
0.0547432
0.0542168
0.0537011
0.0531985
0.0526873
0.0521712
0.0516437
0.0511334
0.0506543
0.050155
0.0496603
0.0491799
0.0486987
0.048233
0.0477952
0.0473403
0.0469071
0.0464692
0.0460464
0.0456399
0.0452273
0.044849
0.0444671
0.0440973
0.0437187
0.0433258
0.0429467
0.0425461
0.0421618
0.0417624
0.0413636
0.0409914
0.0406034
0.0402275
0.0398658
0.0395234
0.0391695
0.0387822
0.0383834
0.0380032
0.0376281
0.0372596
0.0368675
0.0364793
0.0361221
0.0357622
0.0354062
0.0350401
0.034621
0.0341825
0.0337245
0.0331697
0.0326004
0.0320933
0.0316542
0.0313382
0.0310886
0.0308511
0.030351
0.0297218
0.0292551
0.0289568
0.0288181
0.0285985
0.0283289
0.0279282
0.0275215
0.0272121
0.0267139
0.0262302
0.0259126
0.0256193
0.0252307
0.0247705
0.0242842
0.0238082
0.0233867
0.0229734
0.0225242
0.0221396
0.0218271
0.0215568
0.0211972
0.0207907
0.0205696
0.0204299
0.0200956
0.0197009
0.0193761
0.018975
0.0186474
0.0183072
0.0179692
0.017568
0.0170801
0.0166855
0.0162314
0.015804
0.0154757
0.0150053
0.0145725
0.0140744
0.0136372
0.0134552
0.0131714
0.0129411
0.0125281
0.0120375
0.0116885
0.0113373
0.0110216
0.0106517
0.0102607
0.010072
0.00974219
0.00936121
0.00912861
0.0086397
0.00834068
0.00818488
0.00774011
0.00745092
0.00727666
0.00688374
0.00658748
0.00623502
0.00587544
0.0056211
0.00520034
0.0048964
0.00483947
0.00449646
0.00414149
0.0040096
0.00361017
0.00323012
0.00298372
0.00261018
0.00232378
0.00208547
0.00192319
0.0015971
0.00122188
0.00100377
0.000696012
0.000606695
0.000287543
0.141585
0.11815
0.104832
0.0990096
0.094334
0.0912596
0.0890717
0.0873734
0.0859096
0.0846612
0.0835083
0.0824234
0.0814189
0.0804914
0.079575
0.0787184
0.0778968
0.0770724
0.0762756
0.0755019
0.074744
0.0739822
0.073241
0.0725068
0.0717886
0.0710615
0.0703573
0.0696614
0.0689688
0.0682743
0.067576
0.0668814
0.0661702
0.0654705
0.0647652
0.0640684
0.0634029
0.0627601
0.0621412
0.0615663
0.061016
0.0604947
0.0599899
0.0595082
0.0590304
0.0585594
0.0580943
0.0576322
0.0571829
0.0567106
0.0562396
0.0557529
0.0552642
0.0547583
0.0542391
0.0537196
0.0532085
0.0526957
0.0521775
0.0516453
0.0511339
0.0506554
0.0501566
0.0496624
0.0491862
0.0487093
0.0482451
0.0478063
0.0473513
0.0469181
0.0464794
0.0460565
0.0456503
0.0452388
0.044859
0.0444772
0.0441059
0.0437288
0.0433369
0.0429554
0.042555
0.0421721
0.0417708
0.0413723
0.0410013
0.0406105
0.0402326
0.0398721
0.0395245
0.0391619
0.0387793
0.038385
0.0380058
0.0376286
0.0372589
0.036867
0.0364767
0.0361232
0.0357651
0.0354095
0.0350453
0.0346242
0.0341887
0.0337426
0.0331782
0.032586
0.0320781
0.0316386
0.0313354
0.0311002
0.0308594
0.0303559
0.0297228
0.0292543
0.0289587
0.028819
0.0285959
0.0283226
0.027916
0.0275191
0.0272143
0.0267083
0.0262377
0.0259375
0.0256405
0.0252411
0.0247626
0.0242546
0.0237767
0.0233679
0.0229785
0.0225391
0.0221534
0.0218332
0.0215285
0.0211703
0.0207921
0.0205717
0.0204241
0.0200816
0.0197016
0.0193757
0.0189827
0.0186692
0.0182947
0.0179674
0.0175776
0.0170733
0.0166867
0.0162321
0.015801
0.0154798
0.0150197
0.0145775
0.014065
0.0136231
0.0134637
0.0131862
0.0129297
0.0125249
0.0120468
0.0116918
0.0113383
0.0110195
0.0106606
0.0102502
0.0100475
0.00975502
0.0093787
0.00911245
0.0086317
0.00835111
0.0081715
0.00773662
0.00744815
0.00726034
0.00688748
0.0066011
0.0062254
0.00587806
0.00562012
0.00519646
0.00490276
0.00484217
0.00449653
0.00414572
0.00401997
0.00360241
0.00321478
0.00299759
0.00260473
0.00231865
0.00208746
0.00190801
0.00160409
0.00123814
0.000988022
0.000691096
0.000628415
0.000289968
0.137536
0.117405
0.105034
0.0993089
0.094641
0.0915334
0.0892943
0.0875425
0.0860477
0.0847752
0.0835781
0.0825137
0.0815079
0.0805524
0.0796442
0.0787811
0.0779518
0.0771203
0.0763198
0.0755443
0.0747854
0.0740184
0.0732765
0.0725417
0.0718227
0.0710929
0.0703894
0.0696927
0.0690018
0.0683077
0.0676097
0.0669188
0.0662105
0.0655139
0.0648087
0.0641123
0.0634476
0.0628033
0.0621804
0.0616031
0.0610505
0.0605235
0.060016
0.0595324
0.0590526
0.0585786
0.0581126
0.0576497
0.0571983
0.0567273
0.0562548
0.0557687
0.0552777
0.0547736
0.0542623
0.0537431
0.0532225
0.0527037
0.0521832
0.0516484
0.0511352
0.050657
0.0501575
0.0496628
0.0491907
0.048718
0.0482566
0.0478173
0.0473624
0.046929
0.0464898
0.0460667
0.045661
0.0452514
0.0448697
0.0444875
0.0441146
0.043738
0.0433479
0.0429647
0.0425645
0.042184
0.0417836
0.0413849
0.0410121
0.0406182
0.0402399
0.0398818
0.0395253
0.0391515
0.0387757
0.0383847
0.03801
0.037631
0.0372565
0.036866
0.0364719
0.0361219
0.0357658
0.0354152
0.0350556
0.0346274
0.0341899
0.0337616
0.0331873
0.0325703
0.0320643
0.0316218
0.0313261
0.0311065
0.0308554
0.0303552
0.0297321
0.0292626
0.0289716
0.0288244
0.0285925
0.0283101
0.0279043
0.0275107
0.0272029
0.0267053
0.0262579
0.0259687
0.0256667
0.0252541
0.0247573
0.0242226
0.0237346
0.0233405
0.02297
0.0225525
0.0221839
0.0218394
0.0214969
0.0211387
0.0207906
0.0205828
0.020413
0.0200656
0.0197058
0.0193837
0.0189977
0.018678
0.018285
0.017971
0.0175862
0.0170728
0.016677
0.0162306
0.0158012
0.0154708
0.0150292
0.0145938
0.0140642
0.0136086
0.0134655
0.013193
0.0129265
0.0125188
0.0120461
0.0116974
0.0113402
0.01102
0.0106725
0.0102439
0.0100266
0.00976382
0.00939423
0.00909572
0.00862594
0.00837145
0.00814538
0.00773351
0.00745479
0.00723276
0.00688493
0.00661123
0.00622488
0.00588221
0.00561065
0.00519959
0.0049137
0.00483345
0.00450206
0.00415327
0.00402124
0.00359521
0.00320456
0.00300648
0.00260406
0.00230711
0.00208742
0.00190058
0.00161577
0.0012468
0.000975775
0.00068817
0.000643759
0.000292304
0.133741
0.11655
0.105123
0.0995392
0.0949148
0.0917872
0.0895034
0.0877086
0.0861872
0.0848855
0.0836775
0.082598
0.0815828
0.0806019
0.0797143
0.0788469
0.0779937
0.077174
0.076368
0.0755895
0.0748286
0.0740561
0.0733131
0.0725783
0.0718586
0.071125
0.0704215
0.0697229
0.0690325
0.0683366
0.0676373
0.0669491
0.066244
0.0655507
0.064847
0.0641528
0.0634909
0.0628466
0.0622216
0.0616421
0.0610876
0.0605563
0.0600462
0.059559
0.0590773
0.0586006
0.0581333
0.0576699
0.0572152
0.0567445
0.0562706
0.0557851
0.0552936
0.0547894
0.0542826
0.0537644
0.0532393
0.052713
0.0521898
0.0516561
0.0511407
0.0506588
0.0501575
0.0496668
0.0491954
0.0487235
0.0482649
0.0478266
0.0473725
0.0469393
0.0465003
0.0460769
0.0456717
0.0452644
0.0448809
0.044498
0.0441234
0.0437469
0.043358
0.0429739
0.0425746
0.0421965
0.0417986
0.0414001
0.0410236
0.0406287
0.0402511
0.0398924
0.0395267
0.039141
0.0387717
0.038385
0.0380154
0.0376339
0.0372527
0.0368656
0.036468
0.036119
0.0357653
0.0354249
0.0350715
0.0346307
0.0341814
0.0337738
0.0331928
0.0325556
0.0320538
0.0316034
0.0313112
0.0311003
0.0308329
0.0303474
0.0297572
0.0292905
0.028996
0.0288364
0.0285928
0.0282951
0.0278862
0.0274917
0.0271813
0.0267153
0.0262992
0.0260068
0.0256851
0.0252558
0.0247589
0.0242134
0.0237032
0.0233117
0.0229437
0.0225524
0.0222151
0.0218434
0.0214693
0.0211176
0.0208002
0.0205937
0.0203863
0.0200428
0.0197056
0.0193941
0.0190198
0.0186827
0.018274
0.0179766
0.0175939
0.0170757
0.0166665
0.0162245
0.0157912
0.0154571
0.0150395
0.0146157
0.0140831
0.0135956
0.0134511
0.0131847
0.0129265
0.0125159
0.0120411
0.0117024
0.0113447
0.0110266
0.010684
0.0102429
0.0100129
0.00976601
0.00940951
0.00908488
0.00861613
0.00838697
0.00812076
0.00772998
0.00748124
0.00720176
0.00686765
0.00661605
0.00622275
0.00589056
0.00560609
0.00520563
0.00492371
0.00481952
0.00451766
0.00416694
0.00401378
0.0035799
0.00318334
0.00302449
0.00261647
0.00228129
0.00209268
0.00190298
0.00161437
0.00125002
0.00096694
0.000693793
0.000650832
0.00029065
0.130195
0.115598
0.105101
0.0996988
0.0951516
0.0920189
0.0896999
0.0878695
0.0863217
0.084996
0.0837778
0.0826816
0.0816567
0.0806739
0.0797751
0.0789016
0.0780319
0.0772288
0.0764176
0.0756362
0.0748606
0.0741
0.0733536
0.0726156
0.0718962
0.0711583
0.0704541
0.0697541
0.0690645
0.0683664
0.0676647
0.0669784
0.0662763
0.065586
0.0648831
0.0641913
0.0635332
0.0628888
0.0622633
0.0616823
0.0611261
0.0605916
0.0600798
0.0595884
0.0591047
0.0586256
0.0581565
0.0576915
0.0572339
0.0567625
0.0562877
0.0558031
0.05531
0.0548065
0.0543023
0.0537813
0.0532543
0.0527231
0.0521992
0.0516709
0.0511508
0.0506596
0.0501624
0.0496776
0.0492021
0.0487281
0.0482693
0.047832
0.0473802
0.0469482
0.0465104
0.0460867
0.045682
0.0452771
0.0448918
0.0445084
0.0441319
0.0437555
0.0433673
0.0429822
0.0425847
0.0422082
0.0418136
0.0414171
0.0410357
0.040644
0.0402697
0.039902
0.0395277
0.0391354
0.0387675
0.0383859
0.0380209
0.0376358
0.0372477
0.0368619
0.0364663
0.036117
0.0357664
0.0354359
0.0350861
0.0346297
0.0341587
0.0337686
0.0331976
0.0325593
0.0320549
0.0315878
0.0312976
0.031088
0.0308059
0.0303355
0.0297824
0.0293227
0.0290193
0.0288506
0.0285976
0.0282827
0.027875