/*--------------------------------*- C++ -*----------------------------------*\
  =========                 |
  \\      /  F ield         | OpenFOAM: The Open Source CFD Toolbox
   \\    /   O peration     | Website:  https://openfoam.org
    \\  /    A nd           | Version:  12
     \\/     M anipulation  |
\*---------------------------------------------------------------------------*/
FoamFile
{
    format      ascii;
    class       volScalarField;
    location    "300";
    object      nut;
}
// * * * * * * * * * * * * * * * * * * * * * * * * * * * * * * * * * * * * * //

dimensions      [0 2 -1 0 0 0 0];

internalField   nonuniform List<scalar> 
20000
(
1.76054e-06
6.61328e-07
7.32549e-07
9.77631e-07
1.13846e-06
1.26665e-06
1.39367e-06
1.5282e-06
1.63982e-06
1.74264e-06
1.81171e-06
1.88678e-06
1.93492e-06
1.98301e-06
2.02389e-06
2.0613e-06
2.08977e-06
2.11444e-06
2.13406e-06
2.15188e-06
2.16528e-06
2.17651e-06
2.18534e-06
2.19237e-06
2.19827e-06
2.20212e-06
2.20494e-06
2.20664e-06
2.2071e-06
2.20687e-06
2.20614e-06
2.20457e-06
2.20236e-06
2.19982e-06
2.19676e-06
2.19338e-06
2.18985e-06
2.186e-06
2.18177e-06
2.17753e-06
2.17298e-06
2.16841e-06
2.16364e-06
2.1588e-06
2.15392e-06
2.14895e-06
2.14388e-06
2.13883e-06
2.13369e-06
2.1286e-06
2.12347e-06
2.11839e-06
2.11324e-06
2.10814e-06
2.10308e-06
2.09804e-06
2.09302e-06
2.08803e-06
2.08308e-06
2.07817e-06
2.0733e-06
2.06846e-06
2.06366e-06
2.05893e-06
2.05421e-06
2.04956e-06
2.04495e-06
2.0404e-06
2.03589e-06
2.03144e-06
2.02703e-06
2.02268e-06
2.01837e-06
2.01411e-06
2.00991e-06
2.00574e-06
2.00165e-06
1.99759e-06
1.99359e-06
1.98963e-06
1.98574e-06
1.98188e-06
1.97808e-06
1.9743e-06
1.97058e-06
1.9669e-06
1.96325e-06
1.95965e-06
1.9561e-06
1.95258e-06
1.94912e-06
1.94571e-06
1.94237e-06
1.93909e-06
1.93587e-06
1.93273e-06
1.92962e-06
1.92659e-06
1.92355e-06
1.9206e-06
1.91759e-06
1.91466e-06
1.91159e-06
1.90856e-06
1.9054e-06
1.90231e-06
1.89906e-06
1.89583e-06
1.89246e-06
1.88914e-06
1.88572e-06
1.88223e-06
1.87868e-06
1.87509e-06
1.87153e-06
1.86796e-06
1.86455e-06
1.86116e-06
1.85793e-06
1.85488e-06
1.85175e-06
1.84865e-06
1.84559e-06
1.84249e-06
1.83962e-06
1.83676e-06
1.83399e-06
1.83123e-06
1.82853e-06
1.82585e-06
1.82329e-06
1.82061e-06
1.81813e-06
1.81563e-06
1.81328e-06
1.81094e-06
1.80881e-06
1.80664e-06
1.80454e-06
1.80238e-06
1.80031e-06
1.79813e-06
1.79604e-06
1.79388e-06
1.79182e-06
1.7897e-06
1.78766e-06
1.78552e-06
1.78359e-06
1.78164e-06
1.77978e-06
1.77774e-06
1.77581e-06
1.77387e-06
1.77203e-06
1.77004e-06
1.76826e-06
1.76651e-06
1.76491e-06
1.76319e-06
1.7614e-06
1.75943e-06
1.75798e-06
1.75639e-06
1.75482e-06
1.75323e-06
1.75167e-06
1.75009e-06
1.74865e-06
1.74718e-06
1.74586e-06
1.74443e-06
1.74305e-06
1.7418e-06
1.7407e-06
1.73961e-06
1.73857e-06
1.73753e-06
1.73648e-06
1.73549e-06
1.73462e-06
1.73378e-06
1.733e-06
1.73214e-06
1.73144e-06
1.73069e-06
1.73004e-06
1.72941e-06
1.72889e-06
1.72832e-06
1.72796e-06
1.72749e-06
1.7273e-06
1.72683e-06
1.7266e-06
1.72601e-06
1.72576e-06
1.72493e-06
1.72517e-06
1.72458e-06
3.08548e-05
2.66405e-05
2.94446e-05
3.91733e-05
4.69978e-05
5.46653e-05
6.26713e-05
7.10252e-05
7.83366e-05
8.51811e-05
9.04078e-05
9.59432e-05
9.99196e-05
0.000103961
0.000107528
0.000110817
0.000113589
0.000116099
0.000118295
0.000120331
0.000122081
0.000123667
0.000125078
0.000126351
0.000127515
0.00012853
0.000129456
0.000130285
0.000131016
0.000131677
0.000132284
0.000132816
0.000133289
0.00013372
0.000134099
0.000134439
0.000134752
0.000135025
0.000135262
0.000135479
0.000135664
0.000135831
0.000135973
0.000136098
0.000136206
0.000136296
0.000136369
0.000136432
0.000136479
0.000136518
0.000136545
0.000136564
0.000136571
0.000136572
0.000136566
0.000136553
0.000136534
0.000136508
0.000136479
0.000136444
0.000136405
0.000136361
0.000136314
0.000136264
0.000136209
0.000136153
0.000136094
0.000136033
0.000135969
0.000135904
0.000135837
0.000135768
0.000135697
0.000135625
0.000135553
0.000135479
0.000135404
0.000135329
0.000135253
0.000135175
0.000135098
0.00013502
0.000134942
0.000134863
0.000134783
0.000134703
0.000134622
0.000134541
0.00013446
0.000134379
0.000134298
0.000134217
0.000134137
0.000134059
0.000133981
0.000133905
0.00013383
0.000133756
0.000133681
0.000133609
0.000133532
0.000133459
0.000133377
0.000133296
0.000133208
0.000133122
0.000133027
0.000132932
0.000132827
0.000132725
0.000132616
0.000132502
0.000132383
0.00013226
0.000132135
0.00013201
0.00013189
0.000131769
0.000131655
0.000131549
0.000131436
0.000131324
0.00013121
0.000131094
0.000130988
0.000130881
0.000130778
0.000130675
0.000130572
0.000130471
0.000130374
0.00013027
0.000130176
0.00013008
0.000129991
0.000129903
0.000129825
0.000129744
0.000129665
0.000129584
0.000129505
0.00012942
0.000129339
0.000129254
0.000129173
0.000129089
0.000129009
0.000128923
0.000128849
0.000128771
0.000128698
0.000128614
0.000128537
0.000128458
0.000128382
0.0001283
0.000128228
0.000128158
0.000128095
0.000128024
0.000127947
0.000127862
0.000127806
0.00012774
0.000127675
0.000127609
0.000127544
0.000127477
0.000127417
0.000127356
0.000127303
0.000127241
0.000127184
0.000127134
0.000127092
0.000127051
0.000127011
0.000126971
0.000126927
0.000126889
0.000126857
0.000126827
0.000126797
0.000126765
0.000126741
0.000126715
0.000126692
0.000126673
0.000126656
0.000126641
0.000126632
0.000126625
0.000126625
0.000126618
0.000126616
0.000126603
0.000126601
0.000126575
0.000126593
0.000126564
0.000184606
6.36385e-05
4.74301e-05
5.26723e-05
6.47048e-05
8.11589e-05
9.89867e-05
0.000117447
0.000134263
0.000150394
0.000163997
0.000177863
0.000189171
0.000200386
0.000210633
0.000220251
0.000228698
0.000236587
0.000243731
0.000250431
0.000256425
0.000262001
0.000267111
0.000271851
0.000276263
0.000280296
0.00028403
0.000287498
0.000290692
0.00029367
0.000296465
0.000299036
0.000301425
0.000303667
0.000305747
0.000307695
0.00030954
0.000311251
0.000312845
0.000314354
0.000315759
0.000317088
0.000318329
0.0003195
0.000320607
0.000321642
0.000322616
0.000323539
0.000324403
0.000325226
0.000325999
0.000326734
0.000327419
0.000328074
0.000328694
0.000329281
0.000329835
0.00033036
0.000330859
0.000331331
0.000331779
0.000332203
0.000332606
0.000332988
0.000333348
0.000333693
0.00033402
0.000334331
0.000334625
0.000334905
0.00033517
0.000335422
0.000335661
0.000335888
0.000336104
0.000336308
0.000336502
0.000336687
0.000336861
0.000337027
0.000337185
0.000337333
0.000337474
0.000337606
0.000337731
0.000337848
0.000337957
0.00033806
0.000338156
0.000338246
0.000338331
0.00033841
0.000338487
0.000338561
0.000338632
0.000338702
0.000338768
0.000338834
0.000338892
0.000338953
0.000339002
0.000339053
0.000339084
0.000339114
0.000339124
0.000339137
0.000339125
0.000339111
0.000339071
0.000339034
0.000338975
0.000338903
0.00033881
0.000338707
0.000338593
0.000338474
0.00033836
0.000338241
0.000338134
0.000338041
0.000337924
0.000337805
0.000337675
0.000337537
0.000337418
0.000337297
0.000337177
0.000337058
0.000336935
0.000336814
0.000336698
0.000336566
0.000336453
0.000336334
0.000336231
0.000336128
0.000336044
0.000335953
0.000335865
0.000335768
0.000335677
0.000335567
0.000335466
0.000335353
0.000335249
0.000335137
0.000335032
0.000334913
0.000334819
0.000334716
0.000334621
0.000334502
0.000334394
0.00033428
0.000334175
0.000334052
0.000333953
0.000333858
0.000333778
0.000333675
0.000333555
0.000333418
0.000333351
0.000333253
0.000333159
0.000333064
0.000332966
0.000332864
0.000332778
0.00033269
0.000332619
0.000332525
0.000332442
0.000332382
0.000332335
0.000332291
0.000332242
0.000332195
0.000332139
0.000332097
0.000332063
0.000332039
0.000332009
0.000331981
0.00033196
0.000331942
0.000331924
0.000331923
0.000331917
0.000331931
0.00033194
0.000331975
0.000332002
0.000332039
0.000332059
0.000332085
0.000332099
0.000332098
0.000332143
0.000332112
0.000741303
0.000184417
0.000105279
7.5524e-05
7.6425e-05
8.81024e-05
0.000104056
0.000124333
0.000145385
0.000167337
0.000187666
0.000208492
0.000227427
0.000245876
0.00026321
0.00027964
0.000294307
0.000308327
0.00032121
0.000333398
0.00034445
0.000354886
0.000364548
0.000373619
0.000382128
0.00039001
0.000397387
0.00040431
0.000410769
0.00041686
0.000422573
0.000427929
0.000432965
0.000437723
0.000442187
0.000446411
0.000450437
0.000454208
0.000457768
0.000461162
0.000464361
0.00046741
0.000470291
0.000473034
0.000475652
0.000478127
0.000480483
0.000482732
0.000484868
0.000486917
0.000488865
0.000490734
0.000492503
0.000494207
0.000495838
0.000497398
0.000498889
0.00050032
0.000501693
0.000503009
0.000504273
0.000505485
0.000506649
0.000507768
0.00050884
0.000509876
0.000510871
0.00051183
0.000512751
0.000513639
0.000514494
0.000515318
0.000516112
0.000516877
0.000517616
0.000518327
0.000519015
0.000519678
0.000520318
0.000520936
0.000521534
0.000522109
0.000522666
0.000523201
0.000523719
0.000524217
0.000524696
0.000525159
0.000525604
0.000526033
0.000526447
0.000526849
0.000527239
0.00052762
0.000527991
0.000528355
0.000528709
0.000529058
0.000529392
0.000529725
0.000530035
0.000530347
0.000530621
0.000530891
0.000531123
0.000531358
0.000531548
0.000531731
0.000531864
0.000532001
0.000532093
0.000532163
0.000532188
0.000532194
0.000532173
0.000532141
0.000532108
0.000532063
0.000532033
0.000532021
0.000531965
0.000531903
0.000531815
0.000531714
0.000531639
0.000531557
0.000531476
0.000531392
0.000531298
0.000531208
0.000531121
0.000531007
0.000530921
0.000530826
0.000530753
0.000530679
0.000530634
0.000530576
0.000530522
0.000530454
0.00053039
0.000530295
0.000530214
0.000530113
0.000530023
0.000529922
0.00052983
0.000529715
0.000529638
0.000529544
0.000529463
0.000529342
0.000529239
0.00052912
0.000529016
0.000528885
0.00052879
0.0005287
0.000528632
0.000528523
0.000528387
0.000528225
0.000528175
0.00052807
0.000527971
0.000527872
0.000527765
0.000527651
0.00052756
0.000527467
0.000527401
0.000527293
0.000527209
0.000527159
0.00052713
0.000527102
0.000527063
0.000527026
0.000526973
0.000526943
0.000526926
0.000526923
0.000526907
0.000526899
0.000526897
0.000526903
0.000526904
0.00052694
0.000526961
0.000527023
0.000527067
0.000527164
0.000527235
0.00052734
0.0005274
0.000527494
0.000527545
0.000527606
0.000527695
0.000527747
0.0015022
0.000491294
0.000263242
0.000158032
0.000116021
0.000103209
0.000105626
0.00011759
0.000134636
0.000157061
0.000180589
0.000205638
0.000230091
0.000253965
0.000276854
0.000299137
0.000319788
0.000339554
0.000358185
0.000375996
0.000392291
0.000408017
0.000422675
0.00043663
0.000449775
0.000462051
0.000473655
0.000484613
0.000494913
0.000504701
0.000513894
0.000522597
0.000530834
0.000538653
0.000546045
0.000553082
0.000559765
0.000566114
0.000572132
0.000577893
0.000583353
0.000588577
0.00059354
0.000598291
0.000602841
0.000607164
0.000611303
0.000615268
0.000619057
0.000622701
0.000626186
0.000629538
0.000632731
0.000635821
0.000638788
0.000641636
0.000644375
0.000647012
0.000649554
0.000652
0.000654358
0.00065663
0.000658822
0.000660937
0.000662973
0.000664949
0.000666853
0.000668696
0.000670474
0.000672196
0.00067386
0.000675471
0.00067703
0.000678538
0.000680001
0.000681415
0.000682788
0.000684118
0.000685406
0.000686657
0.00068787
0.000689044
0.000690184
0.000691288
0.000692358
0.000693395
0.000694398
0.00069537
0.000696312
0.000697225
0.000698109
0.000698969
0.000699808
0.000700628
0.000701428
0.000702212
0.000702979
0.000703733
0.000704462
0.000705185
0.000705874
0.000706559
0.000707188
0.000707807
0.000708367
0.000708925
0.000709413
0.000709889
0.000710286
0.000710681
0.000711007
0.000711296
0.000711512
0.000711697
0.000711833
0.000711948
0.000712052
0.000712132
0.00071223
0.000712346
0.0007124
0.000712442
0.000712437
0.000712414
0.000712423
0.000712417
0.000712412
0.0007124
0.00071237
0.000712343
0.000712318
0.000712255
0.000712228
0.000712184
0.000712174
0.00071216
0.000712184
0.000712186
0.000712198
0.000712188
0.000712183
0.000712131
0.000712099
0.000712035
0.000711991
0.000711928
0.000711879
0.000711794
0.00071176
0.000711696
0.000711653
0.000711558
0.000711485
0.000711383
0.000711304
0.000711187
0.00071112
0.000711055
0.000711019
0.000710921
0.00071079
0.000710624
0.00071061
0.000710512
0.000710426
0.000710341
0.000710243
0.000710128
0.000710046
0.000709963
0.000709915
0.000709803
0.000709731
0.000709707
0.000709708
0.000709707
0.000709686
0.000709664
0.00070962
0.000709612
0.000709618
0.000709642
0.000709648
0.000709669
0.000709694
0.000709731
0.000709762
0.000709841
0.000709901
0.000710018
0.000710107
0.000710274
0.000710399
0.000710589
0.000710701
0.000710885
0.000710995
0.000711134
0.000711282
0.000711495
0.00202512
0.000999369
0.000588394
0.000356142
0.000242867
0.000176817
0.000145636
0.000134443
0.000134978
0.000145408
0.000161854
0.000183387
0.000207573
0.000233373
0.000259478
0.000285858
0.000311546
0.000336607
0.000360583
0.000383841
0.000405662
0.000426648
0.00044647
0.000465509
0.000483393
0.000500254
0.0005164
0.000531716
0.00054622
0.000560097
0.000573147
0.000585617
0.000597484
0.00060879
0.000619543
0.000629833
0.000639598
0.00064896
0.000657872
0.000666429
0.000674568
0.000682382
0.00068985
0.000696989
0.000703851
0.000710412
0.000716712
0.00072276
0.000728562
0.000734154
0.000739518
0.000744687
0.000749634
0.000754436
0.000759051
0.000763493
0.000767779
0.000771919
0.000775915
0.000779773
0.0007835
0.000787101
0.000790583
0.00079395
0.000797203
0.000800365
0.000803419
0.00080638
0.000809246
0.000812027
0.00081472
0.000817334
0.000819869
0.000822328
0.000824717
0.000827032
0.000829285
0.00083147
0.000833593
0.000835659
0.000837666
0.000839614
0.000841509
0.000843348
0.000845136
0.000846873
0.000848557
0.000850194
0.000851783
0.000853328
0.000854827
0.000856287
0.000857713
0.000859107
0.000860469
0.000861805
0.000863113
0.000864398
0.000865646
0.000866881
0.000868066
0.000869241
0.000870341
0.000871421
0.000872416
0.000873403
0.000874292
0.000875159
0.000875913
0.000876659
0.000877302
0.000877896
0.000878383
0.000878821
0.000879182
0.000879509
0.000879811
0.000880069
0.000880349
0.000880644
0.000880858
0.000881056
0.000881179
0.000881277
0.000881414
0.000881523
0.000881632
0.000881729
0.000881797
0.000881868
0.000881939
0.00088196
0.000882025
0.000882062
0.000882146
0.000882225
0.000882347
0.000882437
0.000882545
0.000882625
0.00088271
0.000882731
0.000882778
0.00088278
0.000882813
0.000882819
0.000882842
0.000882817
0.000882853
0.000882841
0.000882863
0.000882823
0.000882809
0.000882742
0.000882713
0.000882639
0.000882625
0.000882606
0.000882626
0.000882554
0.000882453
0.000882308
0.000882352
0.000882271
0.000882218
0.000882169
0.000882101
0.000881994
0.000881934
0.000881877
0.00088186
0.000881749
0.000881709
0.000881725
0.00088177
0.000881804
0.000881805
0.000881804
0.000881773
0.000881796
0.000881836
0.000881889
0.00088192
0.000881982
0.000882042
0.000882113
0.000882184
0.000882309
0.000882417
0.000882593
0.000882738
0.000882976
0.00088316
0.000883445
0.000883625
0.000883921
0.000884104
0.000884334
0.000884562
0.000884995
0.00226806
0.00154531
0.0010427
0.00069589
0.000495078
0.000353903
0.000271962
0.000215492
0.000184315
0.000169879
0.000166807
0.000173436
0.000187036
0.000206237
0.000228949
0.000254342
0.000280953
0.00030831
0.000335481
0.000362556
0.00038875
0.000414272
0.000438787
0.000462502
0.000485216
0.00050685
0.000527616
0.000547513
0.000566528
0.000584793
0.000601962
0.000618579
0.000634433
0.000649584
0.000664075
0.000677992
0.000691198
0.000703914
0.000716056
0.000727748
0.000738901
0.000749651
0.000759959
0.000769825
0.000779337
0.000788471
0.000797268
0.000805726
0.00081387
0.000821734
0.000829292
0.000836592
0.000843613
0.00085041
0.000856975
0.00086331
0.000869436
0.000875367
0.0008811
0.000886646
0.000892012
0.000897209
0.000902241
0.000907115
0.000911838
0.000916434
0.000920878
0.000925195
0.000929381
0.000933447
0.000937394
0.000941231
0.000944957
0.000948577
0.000952099
0.000955519
0.000958851
0.000962087
0.000965237
0.000968307
0.000971291
0.000974194
0.000977022
0.000979772
0.000982449
0.000985054
0.000987584
0.000990048
0.000992442
0.000994773
0.00099704
0.000999251
0.00100141
0.00100352
0.00100559
0.00100761
0.00100959
0.00101154
0.00101344
0.00101532
0.00101712
0.00101891
0.00102061
0.00102227
0.00102381
0.00102534
0.00102674
0.00102811
0.00102932
0.00103052
0.00103157
0.00103257
0.00103341
0.00103419
0.00103485
0.00103547
0.00103604
0.00103654
0.00103706
0.00103759
0.00103803
0.00103844
0.00103874
0.00103901
0.00103932
0.00103959
0.00103986
0.00104011
0.00104031
0.00104052
0.00104072
0.00104087
0.00104106
0.00104121
0.00104143
0.00104163
0.00104188
0.00104209
0.00104233
0.00104253
0.00104274
0.00104287
0.00104303
0.00104313
0.00104327
0.00104338
0.00104351
0.00104358
0.00104372
0.00104378
0.0010439
0.00104394
0.00104402
0.00104401
0.00104406
0.00104406
0.00104413
0.00104418
0.00104428
0.00104425
0.00104421
0.00104412
0.00104425
0.0010442
0.0010442
0.00104422
0.0010442
0.00104411
0.00104409
0.00104407
0.0010441
0.001044
0.00104401
0.00104409
0.00104419
0.00104427
0.0010443
0.00104432
0.00104431
0.00104438
0.00104446
0.00104455
0.00104461
0.00104473
0.00104483
0.00104493
0.00104505
0.00104522
0.00104539
0.00104562
0.00104583
0.00104614
0.00104639
0.00104677
0.00104703
0.00104745
0.00104773
0.00104808
0.00104839
0.00104909
0.00235557
0.00196637
0.00150158
0.0011166
0.000855122
0.000645514
0.00050638
0.000397066
0.000323121
0.000267779
0.000232116
0.000212155
0.000203293
0.000204444
0.000213168
0.000228269
0.000247977
0.00027129
0.000296705
0.000323716
0.000351267
0.000379069
0.000406584
0.000433708
0.000460224
0.000485939
0.000510825
0.000534934
0.000558131
0.000580619
0.000602062
0.000622762
0.000642667
0.000661786
0.000680212
0.000697932
0.000714758
0.00073113
0.000746792
0.000761918
0.000776385
0.000790418
0.000803875
0.000816786
0.000829281
0.000841309
0.000852925
0.000864108
0.000874915
0.00088536
0.000895416
0.000905147
0.000914543
0.000923634
0.000932438
0.00094095
0.000949187
0.000957175
0.000964903
0.000972394
0.000979654
0.000986698
0.000993528
0.00100016
0.00100659
0.00101285
0.00101892
0.00102483
0.00103056
0.00103614
0.00104156
0.00104683
0.00105196
0.00105696
0.00106182
0.00106655
0.00107116
0.00107564
0.00108001
0.00108428
0.00108843
0.00109247
0.00109641
0.00110025
0.001104
0.00110764
0.00111119
0.00111465
0.00111801
0.00112129
0.00112449
0.0011276
0.00113065
0.00113363
0.00113654
0.0011394
0.0011422
0.00114496
0.00114764
0.00115029
0.00115285
0.00115539
0.0011578
0.00116017
0.00116239
0.00116459
0.00116661
0.00116859
0.00117038
0.00117215
0.00117371
0.00117522
0.00117652
0.00117774
0.00117879
0.00117979
0.00118071
0.00118151
0.00118236
0.00118318
0.00118391
0.00118461
0.00118514
0.00118566
0.0011862
0.00118667
0.00118715
0.0011876
0.00118798
0.00118838
0.00118875
0.00118906
0.00118942
0.00118972
0.00119011
0.00119048
0.0011909
0.00119125
0.00119166
0.00119203
0.0011924
0.00119266
0.00119297
0.0011932
0.0011935
0.00119375
0.00119403
0.00119422
0.00119449
0.00119466
0.00119491
0.00119509
0.00119529
0.00119535
0.00119553
0.00119563
0.00119582
0.00119597
0.00119618
0.00119622
0.00119627
0.00119628
0.00119651
0.0011965
0.00119659
0.00119671
0.00119676
0.0011967
0.00119673
0.00119679
0.00119687
0.00119678
0.00119689
0.00119704
0.00119722
0.00119736
0.00119743
0.00119748
0.00119748
0.00119762
0.00119777
0.00119789
0.00119797
0.00119818
0.00119833
0.00119846
0.00119863
0.00119885
0.00119907
0.00119937
0.00119965
0.00120003
0.00120034
0.00120079
0.00120118
0.0012017
0.00120211
0.00120259
0.00120301
0.00120402
0.00237521
0.00222135
0.00187436
0.00152479
0.00125213
0.001009
0.000828874
0.000675653
0.000559764
0.000463313
0.00039094
0.000332993
0.000291227
0.000264179
0.000247928
0.000241756
0.000243888
0.000253127
0.000267922
0.000287297
0.000309896
0.000334887
0.00036134
0.000388691
0.000416442
0.000444229
0.000471707
0.000498834
0.000525312
0.00055128
0.000576433
0.000600867
0.000624545
0.000647472
0.000669635
0.000691145
0.000711751
0.000731763
0.000751027
0.000769707
0.000787634
0.000805144
0.000821866
0.000838005
0.000853707
0.000868843
0.000883503
0.000897633
0.000911354
0.000924614
0.000937401
0.000949813
0.000961833
0.000973471
0.000984766
0.0009957
0.00100631
0.00101662
0.00102659
0.00103628
0.00104569
0.00105483
0.00106371
0.00107235
0.00108073
0.0010889
0.00109684
0.00110456
0.00111207
0.00111939
0.00112651
0.00113344
0.0011402
0.00114678
0.00115319
0.00115943
0.00116553
0.00117147
0.00117725
0.0011829
0.00118841
0.00119378
0.00119903
0.00120414
0.00120912
0.00121399
0.00121872
0.00122335
0.00122785
0.00123224
0.00123652
0.00124071
0.00124479
0.0012488
0.00125272
0.00125655
0.00126032
0.00126402
0.00126763
0.00127119
0.00127465
0.00127807
0.00128134
0.00128455
0.00128758
0.00129057
0.00129335
0.00129607
0.00129855
0.001301
0.0013032
0.00130533
0.0013072
0.00130898
0.00131051
0.00131201
0.00131337
0.00131457
0.00131582
0.00131701
0.00131811
0.00131918
0.00132001
0.00132084
0.00132168
0.00132241
0.00132316
0.00132386
0.00132446
0.0013251
0.0013257
0.00132621
0.00132679
0.00132727
0.0013279
0.00132847
0.00132909
0.00132963
0.00133026
0.00133082
0.00133139
0.00133183
0.00133232
0.00133272
0.00133323
0.00133365
0.00133412
0.00133449
0.00133493
0.00133523
0.00133567
0.00133601
0.00133637
0.00133654
0.00133688
0.00133713
0.00133747
0.00133776
0.00133811
0.00133823
0.00133844
0.00133858
0.00133895
0.00133899
0.00133922
0.00133947
0.00133962
0.00133959
0.00133971
0.00133985
0.00134
0.00133994
0.00134019
0.00134044
0.00134072
0.00134093
0.00134104
0.00134113
0.00134117
0.00134143
0.00134165
0.00134179
0.00134191
0.00134225
0.00134245
0.00134258
0.00134283
0.00134308
0.00134335
0.0013437
0.00134406
0.00134452
0.0013449
0.00134539
0.00134588
0.00134651
0.00134713
0.0013477
0.00134825
0.00134963
0.00237154
0.00234593
0.00213199
0.00185903
0.00161676
0.00137791
0.001185
0.00101018
0.000866948
0.000740632
0.000637344
0.000546094
0.000474101
0.0004125
0.000363873
0.000328713
0.00030417
0.000289306
0.000283258
0.000284847
0.000292876
0.000306381
0.000324191
0.00034537
0.000369014
0.000394465
0.000420971
0.000448225
0.00047568
0.000503248
0.000530568
0.000557546
0.000584035
0.000610012
0.000635335
0.000660133
0.00068415
0.000707567
0.000730252
0.000752356
0.000773704
0.000794531
0.000814675
0.000834137
0.000853076
0.00087141
0.000889232
0.000906445
0.000923262
0.000939468
0.000955144
0.000970438
0.000985273
0.000999656
0.00101364
0.0010272
0.0010404
0.00105323
0.00106565
0.00107776
0.00108953
0.00110099
0.00111212
0.00112298
0.00113352
0.0011438
0.00115382
0.00116357
0.00117306
0.00118232
0.00119134
0.00120014
0.00120872
0.00121709
0.00122525
0.00123321
0.00124098
0.00124856
0.00125596
0.00126318
0.00127024
0.00127712
0.00128385
0.00129042
0.00129683
0.00130308
0.00130919
0.00131515
0.00132097
0.00132665
0.00133219
0.0013376
0.00134289
0.00134808
0.00135316
0.00135814
0.00136302
0.00136782
0.00137251
0.00137713
0.00138163
0.00138607
0.00139034
0.00139454
0.00139851
0.00140243
0.00140611
0.00140972
0.00141303
0.00141629
0.00141925
0.00142214
0.0014247
0.00142718
0.0014293
0.00143141
0.00143332
0.001435
0.00143676
0.0014384
0.00143996
0.0014415
0.0014427
0.00144394
0.00144515
0.00144619
0.00144729
0.00144829
0.00144918
0.00145012
0.00145098
0.00145176
0.0014526
0.00145331
0.00145424
0.00145507
0.00145592
0.00145668
0.00145759
0.00145838
0.00145918
0.00145984
0.00146055
0.00146116
0.00146194
0.00146258
0.00146329
0.00146388
0.00146452
0.001465
0.00146568
0.00146623
0.00146677
0.00146706
0.00146764
0.00146808
0.00146862
0.00146907
0.0014696
0.00146982
0.00147026
0.0014706
0.00147111
0.00147123
0.00147167
0.00147208
0.00147235
0.00147236
0.0014726
0.00147286
0.00147309
0.00147307
0.00147354
0.0014739
0.0014743
0.0014746
0.00147477
0.0014749
0.001475
0.00147545
0.00147576
0.00147591
0.00147609
0.00147663
0.00147687
0.00147698
0.00147732
0.00147758
0.00147788
0.00147829
0.00147874
0.00147929
0.00147967
0.00148025
0.00148075
0.00148147
0.00148233
0.00148303
0.00148371
0.00148549
0.0023634
0.00238918
0.00228624
0.00209802
0.00190997
0.00170375
0.00152201
0.00134862
0.00119779
0.00105836
0.000937354
0.00082642
0.00073106
0.000644818
0.000570317
0.000506571
0.000451939
0.000408305
0.00037528
0.000350949
0.000335443
0.000327977
0.000327506
0.000333238
0.000344232
0.000359656
0.00037851
0.00040017
0.0004238
0.000448962
0.000475085
0.000501847
0.00052887
0.000556015
0.000582975
0.000609779
0.000636144
0.000662122
0.000687547
0.000712503
0.000736839
0.000760644
0.000783886
0.00080647
0.000828513
0.000849946
0.000870861
0.000891152
0.000910972
0.00093023
0.000948915
0.000967122
0.000984853
0.00100209
0.00101888
0.00103519
0.00105115
0.00106662
0.00108163
0.00109633
0.00111063
0.00112457
0.00113814
0.00115138
0.00116427
0.00117686
0.00118913
0.00120108
0.00121274
0.00122413
0.00123524
0.00124609
0.00125668
0.00126702
0.00127711
0.00128697
0.00129661
0.00130601
0.0013152
0.00132418
0.00133296
0.00134153
0.00134992
0.00135811
0.00136613
0.00137395
0.0013816
0.00138907
0.00139636
0.00140349
0.00141045
0.00141726
0.00142392
0.00143045
0.00143684
0.00144311
0.00144926
0.00145531
0.00146122
0.00146705
0.00147273
0.00147834
0.00148375
0.00148908
0.00149414
0.00149913
0.00150384
0.00150847
0.00151273
0.00151696
0.00152081
0.00152466
0.00152798
0.00153133
0.00153414
0.00153702
0.00153962
0.00154191
0.00154428
0.00154645
0.00154858
0.00155068
0.00155235
0.00155412
0.00155575
0.00155717
0.0015587
0.00156006
0.00156129
0.00156261
0.0015638
0.0015649
0.00156607
0.00156706
0.00156839
0.00156949
0.00157061
0.00157165
0.00157291
0.00157396
0.00157503
0.00157595
0.00157692
0.0015778
0.00157891
0.0015798
0.00158081
0.00158164
0.00158253
0.00158325
0.00158427
0.00158505
0.00158579
0.00158625
0.00158716
0.0015878
0.0015886
0.00158923
0.00158996
0.00159035
0.00159113
0.00159169
0.00159234
0.00159257
0.00159333
0.00159394
0.00159432
0.00159437
0.00159481
0.00159523
0.00159551
0.00159557
0.00159636
0.00159684
0.0015974
0.00159778
0.00159801
0.00159821
0.00159844
0.00159918
0.00159958
0.00159971
0.00160006
0.00160091
0.00160111
0.00160116
0.00160165
0.00160188
0.00160216
0.00160261
0.00160315
0.00160379
0.00160417
0.00160479
0.00160525
0.00160602
0.00160707
0.00160792
0.00160877
0.00161103
0.00235738
0.00239312
0.00236244
0.00224918
0.00212002
0.00196193
0.0018078
0.00165279
0.00151023
0.00137362
0.00124957
0.00113253
0.001026
0.000927356
0.000837305
0.000755573
0.000679765
0.000614714
0.000555756
0.000504275
0.000463015
0.00042984
0.000404401
0.000386862
0.000376688
0.000373096
0.000375421
0.000383028
0.000395046
0.000410824
0.000429596
0.00045081
0.000473812
0.000498238
0.000523567
0.000549608
0.000575977
0.000602552
0.000629077
0.000655499
0.000681663
0.000707498
0.000733
0.000758021
0.000782615
0.000806689
0.000830312
0.00085338
0.000875972
0.000898057
0.000919601
0.000940635
0.00096119
0.000981234
0.00100082
0.00101991
0.00103857
0.00105679
0.00107451
0.00109184
0.00110875
0.00112527
0.00114138
0.00115713
0.00117247
0.00118752
0.00120217
0.00121644
0.00123043
0.0012441
0.00125745
0.00127051
0.00128325
0.00129573
0.0013079
0.00131983
0.00133149
0.00134287
0.00135401
0.00136491
0.00137558
0.00138601
0.00139622
0.0014062
0.00141598
0.00142553
0.00143487
0.00144402
0.00145295
0.00146169
0.00147023
0.00147859
0.00148678
0.0014948
0.00150266
0.00151037
0.00151793
0.00152538
0.00153266
0.00153984
0.00154685
0.00155376
0.00156046
0.00156705
0.00157336
0.00157955
0.00158545
0.00159125
0.00159662
0.00160193
0.0016068
0.00161166
0.00161597
0.00162044
0.001624
0.00162788
0.00163122
0.00163426
0.00163735
0.00164015
0.00164297
0.00164574
0.001648
0.00165043
0.00165253
0.00165445
0.0016565
0.00165825
0.0016599
0.00166172
0.00166327
0.00166474
0.00166633
0.00166767
0.00166949
0.0016709
0.00167232
0.0016737
0.00167538
0.0016767
0.00167812
0.00167932
0.00168059
0.00168181
0.00168333
0.0016845
0.00168586
0.00168696
0.00168813
0.00168919
0.00169063
0.00169165
0.00169259
0.00169332
0.00169464
0.00169553
0.00169661
0.00169744
0.00169838
0.00169902
0.00170028
0.00170109
0.00170186
0.00170227
0.0017035
0.0017043
0.00170477
0.00170489
0.00170566
0.00170623
0.00170656
0.00170676
0.00170802
0.00170856
0.00170932
0.00170977
0.00171008
0.00171037
0.00171087
0.00171212
0.00171244
0.00171255
0.00171339
0.00171436
0.00171449
0.00171456
0.00171529
0.00171539
0.0017156
0.00171608
0.00171671
0.00171733
0.00171787
0.00171833
0.00171884
0.00171953
0.00172068
0.00172171
0.00172275
0.00172554
0.00235431
0.00238295
0.00238923
0.00233296
0.00225401
0.00214682
0.00202858
0.00190203
0.00177882
0.00165626
0.00154028
0.00142821
0.00132243
0.00122216
0.00112683
0.00103786
0.000953421
0.000875168
0.000802358
0.000733647
0.000673477
0.000617475
0.000568195
0.000527045
0.000492852
0.000465193
0.000444705
0.000430903
0.000423258
0.000421353
0.000424598
0.00043245
0.000444193
0.00045932
0.000477168
0.000497302
0.000519181
0.000542459
0.000566737
0.000591752
0.000617271
0.000643045
0.000668995
0.0006949
0.000720725
0.00074632
0.000771687
0.000796711
0.000821394
0.000845697
0.000869586
0.000893033
0.000916059
0.000938622
0.000960757
0.000982426
0.00100366
0.00102447
0.0010448
0.00106472
0.0010842
0.00110328
0.00112193
0.0011402
0.00115805
0.00117555
0.00119267
0.00120938
0.00122575
0.00124178
0.00125746
0.00127282
0.00128784
0.00130256
0.00131693
0.00133107
0.00134485
0.00135833
0.00137157
0.00138452
0.00139721
0.00140963
0.00142181
0.00143372
0.0014454
0.00145681
0.00146802
0.00147896
0.00148967
0.00150017
0.00151045
0.00152051
0.00153036
0.00154003
0.00154949
0.00155879
0.00156791
0.0015769
0.00158568
0.00159435
0.00160282
0.00161117
0.0016193
0.0016273
0.00163499
0.00164253
0.00164975
0.00165686
0.00166349
0.00167003
0.00167606
0.00168209
0.00168753
0.001693
0.00169765
0.00170246
0.00170698
0.00171114
0.00171501
0.00171842
0.00172214
0.00172559
0.00172854
0.00173183
0.00173442
0.00173694
0.00173961
0.00174181
0.001744
0.00174639
0.00174837
0.00175029
0.00175237
0.00175418
0.00175671
0.00175829
0.00176005
0.00176184
0.00176416
0.00176563
0.00176742
0.00176894
0.0017706
0.00177229
0.00177429
0.0017757
0.00177749
0.00177883
0.00178038
0.00178192