/*--------------------------------*- C++ -*----------------------------------*\
  =========                 |
  \\      /  F ield         | OpenFOAM: The Open Source CFD Toolbox
   \\    /   O peration     | Website:  https://openfoam.org
    \\  /    A nd           | Version:  12
     \\/     M anipulation  |
\*---------------------------------------------------------------------------*/
FoamFile
{
    format      ascii;
    class       volVectorField;
    location    "300";
    object      U;
}
// * * * * * * * * * * * * * * * * * * * * * * * * * * * * * * * * * * * * * //

dimensions      [0 1 -1 0 0 0 0];

internalField   nonuniform List<vector> 
20000
(
(0.696546 -0.0953482 0)
(0.391225 -0.00674946 0)
(0.255428 0.000249512 0)
(0.201814 0.000183036 0)
(0.179406 0.000130794 0)
(0.165878 7.443e-05 0)
(0.156867 1.49644e-05 0)
(0.150832 -6.62513e-06 0)
(0.14623 -1.39818e-05 0)
(0.14271 -8.91705e-06 0)
(0.139523 -8.20795e-06 0)
(0.1371 -7.75649e-06 0)
(0.134763 -2.84777e-06 0)
(0.132854 -6.35387e-06 0)
(0.13117 -6.20473e-06 0)
(0.129714 -4.66566e-06 0)
(0.128344 -2.89502e-06 0)
(0.127119 -1.29421e-06 0)
(0.12595 -1.09428e-07 0)
(0.124897 1.51833e-07 0)
(0.123898 1.44208e-06 0)
(0.122964 2.26961e-06 0)
(0.122078 2.84526e-06 0)
(0.121238 3.1103e-06 0)
(0.12046 3.31793e-06 0)
(0.119708 4.11414e-06 0)
(0.118993 4.1998e-06 0)
(0.118308 4.76217e-06 0)
(0.11765 4.79664e-06 0)
(0.11702 5.11269e-06 0)
(0.116417 5.05921e-06 0)
(0.115835 5.43201e-06 0)
(0.115271 5.42013e-06 0)
(0.114732 5.5062e-06 0)
(0.114208 5.63774e-06 0)
(0.1137 5.64152e-06 0)
(0.113212 5.50672e-06 0)
(0.112741 5.66197e-06 0)
(0.112279 5.62027e-06 0)
(0.111837 5.5864e-06 0)
(0.111402 5.66393e-06 0)
(0.110983 5.50863e-06 0)
(0.110574 5.60128e-06 0)
(0.110178 5.41017e-06 0)
(0.109792 5.47906e-06 0)
(0.109417 5.38153e-06 0)
(0.109049 5.41948e-06 0)
(0.108693 5.25711e-06 0)
(0.108344 5.31406e-06 0)
(0.108004 5.14125e-06 0)
(0.107673 5.14495e-06 0)
(0.107351 5.05791e-06 0)
(0.107034 5.03798e-06 0)
(0.106726 4.92647e-06 0)
(0.106425 4.87878e-06 0)
(0.10613 4.79628e-06 0)
(0.105843 4.73481e-06 0)
(0.105561 4.69847e-06 0)
(0.105286 4.59418e-06 0)
(0.105017 4.5592e-06 0)
(0.104753 4.46867e-06 0)
(0.104496 4.42409e-06 0)
(0.104243 4.35217e-06 0)
(0.103996 4.28363e-06 0)
(0.103753 4.25587e-06 0)
(0.103515 4.15812e-06 0)
(0.103282 4.1226e-06 0)
(0.103054 4.03227e-06 0)
(0.102831 3.99788e-06 0)
(0.102611 3.91806e-06 0)
(0.102396 3.87408e-06 0)
(0.102185 3.81929e-06 0)
(0.101978 3.76904e-06 0)
(0.101774 3.7047e-06 0)
(0.101575 3.65274e-06 0)
(0.101379 3.6057e-06 0)
(0.101187 3.53857e-06 0)
(0.100998 3.49703e-06 0)
(0.100813 3.42772e-06 0)
(0.10063 3.41155e-06 0)
(0.100452 3.32898e-06 0)
(0.100276 3.3105e-06 0)
(0.100103 3.23711e-06 0)
(0.0999333 3.22779e-06 0)
(0.0997663 3.15254e-06 0)
(0.0996018 3.139e-06 0)
(0.0994401 3.08285e-06 0)
(0.0992808 3.06839e-06 0)
(0.0991244 3.00652e-06 0)
(0.0989703 2.99246e-06 0)
(0.0988192 2.92454e-06 0)
(0.0986706 2.90952e-06 0)
(0.0985253 2.80954e-06 0)
(0.0983827 2.78557e-06 0)
(0.0982433 2.69482e-06 0)
(0.0981066 2.67127e-06 0)
(0.0979722 2.58306e-06 0)
(0.0978408 2.54671e-06 0)
(0.0977106 2.48588e-06 0)
(0.0975829 2.46422e-06 0)
(0.0974548 2.43598e-06 0)
(0.0973287 2.44103e-06 0)
(0.0972006 2.46804e-06 0)
(0.0970737 2.49784e-06 0)
(0.0969444 2.51153e-06 0)
(0.0968163 2.56391e-06 0)
(0.0966849 2.65226e-06 0)
(0.0965539 2.70348e-06 0)
(0.096421 2.74955e-06 0)
(0.0962882 2.79653e-06 0)
(0.0961542 2.87916e-06 0)
(0.0960179 3.05149e-06 0)
(0.0958828 3.0003e-06 0)
(0.095747 3.05207e-06 0)
(0.0956149 3.0234e-06 0)
(0.095482 3.10906e-06 0)
(0.0953544 2.89475e-06 0)
(0.0952285 2.8571e-06 0)
(0.0951066 2.81948e-06 0)
(0.0949879 2.78659e-06 0)
(0.0948715 2.76668e-06 0)
(0.0947558 2.75782e-06 0)
(0.0946465 2.65334e-06 0)
(0.0945365 2.64673e-06 0)
(0.0944321 2.45493e-06 0)
(0.0943291 2.40973e-06 0)
(0.0942298 2.40015e-06 0)
(0.0941309 2.34045e-06 0)
(0.0940359 2.26525e-06 0)
(0.0939404 2.2575e-06 0)
(0.0938497 2.21301e-06 0)
(0.0937573 2.2068e-06 0)
(0.0936699 2.05019e-06 0)
(0.0935821 2.02054e-06 0)
(0.0934985 1.98887e-06 0)
(0.0934148 1.90837e-06 0)
(0.0933366 1.7549e-06 0)
(0.093258 1.73623e-06 0)
(0.0931824 1.76755e-06 0)
(0.0931052 1.77184e-06 0)
(0.0930314 1.73749e-06 0)
(0.0929562 1.74089e-06 0)
(0.0928846 1.72173e-06 0)
(0.0928115 1.74793e-06 0)
(0.0927416 1.69152e-06 0)
(0.0926695 1.66792e-06 0)
(0.0926013 1.64122e-06 0)
(0.0925303 1.66577e-06 0)
(0.0924647 1.5606e-06 0)
(0.0923985 1.55199e-06 0)
(0.092335 1.60639e-06 0)
(0.0922678 1.63714e-06 0)
(0.0922045 1.5456e-06 0)
(0.0921416 1.47873e-06 0)
(0.0920813 1.52271e-06 0)
(0.0920179 1.48928e-06 0)
(0.0919588 1.42317e-06 0)
(0.0918992 1.37078e-06 0)
(0.0918441 1.3695e-06 0)
(0.0917876 1.42657e-06 0)
(0.0917323 1.48764e-06 0)
(0.0916723 1.3739e-06 0)
(0.0916209 1.21979e-06 0)
(0.0915692 1.24421e-06 0)
(0.0915178 1.26371e-06 0)
(0.091465 1.25638e-06 0)
(0.0914161 1.14827e-06 0)
(0.0913669 1.20008e-06 0)
(0.0913186 1.24855e-06 0)
(0.0912694 1.14897e-06 0)
(0.0912246 1.14833e-06 0)
(0.0911805 1.08714e-06 0)
(0.0911349 1.08315e-06 0)
(0.0910894 1.04347e-06 0)
(0.0910476 9.4735e-07 0)
(0.0910066 9.2755e-07 0)
(0.0909686 8.81879e-07 0)
(0.0909305 7.89675e-07 0)
(0.0908935 9.13429e-07 0)
(0.0908535 9.52988e-07 0)
(0.0908187 7.47332e-07 0)
(0.0907823 7.76678e-07 0)
(0.0907506 7.70936e-07 0)
(0.090712 1.02481e-06 0)
(0.0906815 6.61403e-07 0)
(0.0906475 8.17108e-07 0)
(0.0906188 6.61811e-07 0)
(0.0905883 6.11607e-07 0)
(0.0905666 3.86492e-07 0)
(0.0905333 6.16598e-07 0)
(0.0905133 4.25159e-07 0)
(0.09048 6.68694e-07 0)
(0.090465 1.15127e-07 0)
(0.0904325 5.86463e-07 0)
(0.0904204 -2.14275e-08 0)
(0.0903879 6.66783e-07 0)
(0.0903908 -8.23397e-07 0)
(0.0903614 9.55197e-07 0)
(0.0904017 -3.42106e-06 0)
(0.090454 3.83486e-07 0)
(0.971305 0.0731485 0)
(0.83259 0.0463968 0)
(0.671413 0.0180088 0)
(0.562239 0.00770763 0)
(0.499335 0.00400567 0)
(0.458868 0.00249278 0)
(0.430569 0.0016723 0)
(0.409987 0.00121798 0)
(0.393937 0.000939085 0)
(0.381192 0.000775859 0)
(0.370333 0.000648796 0)
(0.361511 0.000548358 0)
(0.35369 0.000483652 0)
(0.347072 0.000411243 0)
(0.341273 0.000358771 0)
(0.336212 0.000321907 0)
(0.331588 0.000292912 0)
(0.327472 0.000268822 0)
(0.323664 0.000248736 0)
(0.320226 0.000228175 0)
(0.31703 0.000213982 0)
(0.314082 0.00020067 0)
(0.311333 0.000189032 0)
(0.30876 0.000177103 0)
(0.30638 0.000166372 0)
(0.304125 0.00015934 0)
(0.302001 0.000151097 0)
(0.29999 0.000144938 0)
(0.298081 0.000137853 0)
(0.296274 0.000132272 0)
(0.294553 0.000126348 0)
(0.29291 0.000122127 0)
(0.291336 0.000117114 0)
(0.289837 0.000112722 0)
(0.288396 0.00010904 0)
(0.287012 0.00010521 0)
(0.285685 0.000101046 0)
(0.284412 9.82033e-05 0)
(0.283176 9.49191e-05 0)
(0.281996 9.18477e-05 0)
(0.280848 8.94421e-05 0)
(0.279744 8.63909e-05 0)
(0.278672 8.42505e-05 0)
(0.277639 8.13654e-05 0)
(0.276637 7.93772e-05 0)
(0.275668 7.71723e-05 0)
(0.274723 7.53824e-05 0)
(0.273809 7.30758e-05 0)
(0.272919 7.1542e-05 0)
(0.272056 6.93713e-05 0)
(0.271217 6.77749e-05 0)
(0.270402 6.60708e-05 0)
(0.269606 6.46365e-05 0)
(0.268832 6.29294e-05 0)
(0.268079 6.14954e-05 0)
(0.267344 5.99995e-05 0)
(0.26663 5.86263e-05 0)
(0.265931 5.74256e-05 0)
(0.265249 5.6027e-05 0)
(0.264584 5.48855e-05 0)
(0.263934 5.36094e-05 0)
(0.2633 5.253e-05 0)
(0.26268 5.1383e-05 0)
(0.262075 5.0281e-05 0)
(0.261481 4.93721e-05 0)
(0.260902 4.8263e-05 0)
(0.260334 4.73571e-05 0)
(0.25978 4.63052e-05 0)
(0.259237 4.54615e-05 0)
(0.258705 4.45051e-05 0)
(0.258185 4.36714e-05 0)
(0.257675 4.28417e-05 0)
(0.257175 4.20715e-05 0)
(0.256685 4.12389e-05 0)
(0.256205 4.04732e-05 0)
(0.255734 3.97342e-05 0)
(0.255273 3.89591e-05 0)
(0.25482 3.82665e-05 0)
(0.254378 3.75093e-05 0)
(0.253942 3.69364e-05 0)
(0.253516 3.61971e-05 0)
(0.253096 3.56486e-05 0)
(0.252685 3.49543e-05 0)
(0.25228 3.44703e-05 0)
(0.251883 3.38028e-05 0)
(0.251493 3.33258e-05 0)
(0.25111 3.27285e-05 0)
(0.250733 3.22473e-05 0)
(0.250363 3.16529e-05 0)
(0.249999 3.11829e-05 0)
(0.249643 3.05464e-05 0)
(0.249292 3.00549e-05 0)
(0.24895 2.93322e-05 0)
(0.248614 2.88332e-05 0)
(0.248285 2.81488e-05 0)
(0.247963 2.77018e-05 0)
(0.247646 2.70911e-05 0)
(0.247336 2.66899e-05 0)
(0.24703 2.62625e-05 0)
(0.246728 2.60331e-05 0)
(0.246427 2.58297e-05 0)
(0.246131 2.58008e-05 0)
(0.245831 2.58578e-05 0)
(0.245534 2.59504e-05 0)
(0.245234 2.6035e-05 0)
(0.244935 2.62434e-05 0)
(0.244632 2.65547e-05 0)
(0.244331 2.66753e-05 0)
(0.244027 2.6851e-05 0)
(0.243723 2.69913e-05 0)
(0.243419 2.7265e-05 0)
(0.243112 2.75997e-05 0)
(0.242809 2.73169e-05 0)
(0.242505 2.71563e-05 0)
(0.24221 2.67559e-05 0)
(0.241914 2.66096e-05 0)
(0.24163 2.55728e-05 0)
(0.24135 2.5064e-05 0)
(0.241079 2.45139e-05 0)
(0.240814 2.39536e-05 0)
(0.240557 2.35662e-05 0)
(0.240302 2.2998e-05 0)
(0.24006 2.22624e-05 0)
(0.239818 2.19105e-05 0)
(0.239587 2.10023e-05 0)
(0.239359 2.05208e-05 0)
(0.239139 2.02064e-05 0)
(0.238921 1.97197e-05 0)
(0.238711 1.92852e-05 0)
(0.2385 1.89752e-05 0)
(0.238299 1.85913e-05 0)
(0.238096 1.83446e-05 0)
(0.237902 1.7671e-05 0)
(0.237708 1.73288e-05 0)
(0.237523 1.69991e-05 0)
(0.237338 1.64624e-05 0)
(0.237163 1.57774e-05 0)
(0.236988 1.55134e-05 0)
(0.23682 1.54715e-05 0)
(0.236649 1.53213e-05 0)
(0.236485 1.50439e-05 0)
(0.236319 1.48547e-05 0)
(0.236161 1.46397e-05 0)
(0.236 1.45552e-05 0)
(0.235846 1.43595e-05 0)
(0.235687 1.41891e-05 0)
(0.235536 1.40112e-05 0)
(0.23538 1.39034e-05 0)
(0.235235 1.33403e-05 0)
(0.235088 1.31516e-05 0)
(0.234948 1.32832e-05 0)
(0.234801 1.32845e-05 0)
(0.234662 1.27811e-05 0)
(0.234524 1.24059e-05 0)
(0.234391 1.25157e-05 0)
(0.234253 1.23473e-05 0)
(0.234123 1.19862e-05 0)
(0.233992 1.1614e-05 0)
(0.23387 1.13599e-05 0)
(0.233745 1.13697e-05 0)
(0.233625 1.16487e-05 0)
(0.233496 1.12663e-05 0)
(0.233382 1.04374e-05 0)
(0.233267 1.04112e-05 0)
(0.233154 1.05256e-05 0)
(0.233039 1.03315e-05 0)
(0.232931 9.80699e-06 0)
(0.232822 9.84806e-06 0)
(0.232716 9.94739e-06 0)
(0.232609 9.47821e-06 0)
(0.232509 9.14357e-06 0)
(0.232412 9.01525e-06 0)
(0.232311 9.18163e-06 0)
(0.232211 8.89377e-06 0)
(0.232118 8.44495e-06 0)
(0.232025 8.10509e-06 0)
(0.231939 7.80187e-06 0)
(0.231853 7.43201e-06 0)
(0.23177 7.82811e-06 0)
(0.231682 7.81395e-06 0)
(0.231604 7.10562e-06 0)
(0.231522 6.95924e-06 0)
(0.231451 6.97968e-06 0)
(0.231366 7.56055e-06 0)
(0.231299 6.32669e-06 0)
(0.231223 6.5946e-06 0)
(0.23116 6.06543e-06 0)
(0.231089 5.56539e-06 0)
(0.231039 5.17608e-06 0)
(0.230963 5.68728e-06 0)
(0.230916 5.19909e-06 0)
(0.230839 5.6476e-06 0)
(0.230803 4.14278e-06 0)
(0.230727 5.35228e-06 0)
(0.230694 3.56288e-06 0)
(0.230618 5.08569e-06 0)
(0.230605 3.10499e-07 0)
(0.230536 3.14119e-06 0)
(0.230595 -1.36465e-05 0)
(0.230677 -2.02204e-06 0)
(1.00819 0.0653172 0)
(0.99085 0.0518137 0)
(0.92709 0.0301994 0)
(0.830991 0.0178219 0)
(0.755584 0.0112163 0)
(0.697515 0.0075666 0)
(0.652395 0.00535912 0)
(0.617047 0.0040181 0)
(0.588726 0.00314415 0)
(0.565663 0.00257545 0)
(0.546413 0.00214626 0)
(0.530291 0.00181158 0)
(0.516453 0.00157281 0)
(0.504544 0.00135298 0)
(0.494126 0.00118368 0)
(0.484976 0.00105632 0)
(0.476745 0.000952397 0)
(0.469423 0.000864776 0)
(0.462747 0.000791903 0)
(0.456717 0.000723868 0)
(0.451175 0.000671016 0)
(0.446096 0.000623006 0)
(0.441398 0.00058177 0)
(0.437037 0.000541923 0)
(0.433009 0.000506591 0)
(0.429229 0.000479647 0)
(0.425692 0.000452238 0)
(0.422366 0.00042967 0)
(0.419232 0.000406585 0)
(0.416281 0.00038712 0)
(0.413483 0.000368381 0)
(0.410831 0.000352917 0)
(0.408306 0.000336875 0)
(0.405912 0.000322498 0)
(0.403623 0.000309938 0)
(0.401439 0.000297686 0)
(0.399349 0.000285268 0)
(0.397353 0.000275457 0)
(0.395429 0.00026522 0)
(0.393594 0.000255659 0)
(0.39182 0.00024763 0)
(0.390119 0.000238742 0)
(0.388475 0.000231563 0)
(0.386894 0.000223406 0)
(0.385367 0.000216874 0)
(0.383894 0.00021033 0)
(0.382465 0.000204538 0)
(0.381086 0.00019808 0)
(0.379748 0.000193009 0)
(0.378453 0.000187038 0)
(0.377199 0.000182085 0)
(0.375982 0.000177159 0)
(0.374798 0.00017277 0)
(0.37365 0.000167986 0)
(0.372535 0.000163769 0)
(0.371449 0.000159532 0)
(0.370395 0.000155561 0)
(0.369367 0.000151987 0)
(0.368367 0.000148153 0)
(0.367393 0.0001448 0)
(0.366443 0.000141283 0)
(0.365517 0.000138158 0)
(0.364613 0.000134965 0)
(0.363733 0.000131894 0)
(0.362873 0.000129206 0)
(0.362033 0.000126241 0)
(0.361212 0.000123637 0)
(0.360411 0.000120831 0)
(0.359628 0.000118405 0)
(0.358862 0.00011584 0)
(0.358114 0.000113498 0)
(0.357381 0.000111202 0)
(0.356665 0.000109065 0)
(0.355963 0.000106823 0)
(0.355277 0.000104728 0)
(0.354604 0.00010269 0)
(0.353947 0.00010063 0)
(0.353301 9.87194e-05 0)
(0.352671 9.67294e-05 0)
(0.352051 9.50573e-05 0)
(0.351446 9.31714e-05 0)
(0.35085 9.15955e-05 0)
(0.350268 8.98117e-05 0)
(0.349696 8.83827e-05 0)
(0.349135 8.66838e-05 0)
(0.348584 8.53021e-05 0)
(0.348044 8.37401e-05 0)
(0.347513 8.23533e-05 0)
(0.346993 8.08186e-05 0)
(0.346482 7.94735e-05 0)
(0.345981 7.78608e-05 0)
(0.34549 7.64646e-05 0)
(0.34501 7.47312e-05 0)
(0.344539 7.33619e-05 0)
(0.344078 7.17198e-05 0)
(0.343626 7.04869e-05 0)
(0.343183 6.90416e-05 0)
(0.342748 6.80006e-05 0)
(0.342319 6.69728e-05 0)
(0.341897 6.63471e-05 0)
(0.341477 6.58106e-05 0)
(0.341062 6.56426e-05 0)
(0.340647 6.56333e-05 0)
(0.340235 6.57145e-05 0)
(0.339821 6.5824e-05 0)
(0.33941 6.6128e-05 0)
(0.338995 6.65732e-05 0)
(0.338584 6.66439e-05 0)
(0.338171 6.68743e-05 0)
(0.337761 6.69942e-05 0)
(0.337351 6.73272e-05 0)
(0.33694 6.75283e-05 0)
(0.336536 6.68275e-05 0)
(0.336133 6.617e-05 0)
(0.335741 6.51088e-05 0)
(0.335351 6.43087e-05 0)
(0.334975 6.21357e-05 0)
(0.334605 6.08175e-05 0)
(0.334247 5.93327e-05 0)
(0.333898 5.78201e-05 0)
(0.333559 5.67248e-05 0)
(0.333225 5.51893e-05 0)
(0.332907 5.35287e-05 0)
(0.33259 5.25141e-05 0)
(0.332288 5.06417e-05 0)
(0.331988 4.94795e-05 0)
(0.3317 4.86079e-05 0)
(0.331413 4.74503e-05 0)
(0.331138 4.64748e-05 0)
(0.330862 4.56292e-05 0)
(0.330598 4.47092e-05 0)
(0.330333 4.40049e-05 0)
(0.330079 4.26651e-05 0)
(0.329826 4.18333e-05 0)
(0.329582 4.09989e-05 0)
(0.32934 3.97763e-05 0)
(0.329109 3.84034e-05 0)
(0.328879 3.7735e-05 0)
(0.328657 3.74603e-05 0)
(0.328434 3.69901e-05 0)
(0.328219 3.63298e-05 0)
(0.328003 3.58013e-05 0)
(0.327795 3.52806e-05 0)
(0.327586 3.49504e-05 0)
(0.327384 3.45632e-05 0)
(0.327178 3.41646e-05 0)
(0.326981 3.37682e-05 0)
(0.326779 3.33745e-05 0)
(0.326589 3.22003e-05 0)
(0.326397 3.17122e-05 0)
(0.326213 3.1815e-05 0)
(0.326023 3.16478e-05 0)
(0.325844 3.05987e-05 0)
(0.325664 2.98334e-05 0)
(0.325492 2.99355e-05 0)
(0.325314 2.95543e-05 0)
(0.325145 2.87927e-05 0)
(0.324975 2.79456e-05 0)
(0.324815 2.72694e-05 0)
(0.324653 2.7097e-05 0)
(0.324498 2.75739e-05 0)
(0.324333 2.68661e-05 0)
(0.324184 2.51759e-05 0)
(0.324035 2.50514e-05 0)
(0.323888 2.52191e-05 0)
(0.323739 2.46971e-05 0)
(0.323599 2.36877e-05 0)
(0.323458 2.36147e-05 0)
(0.32332 2.36579e-05 0)
(0.323181 2.27357e-05 0)
(0.323051 2.19112e-05 0)
(0.322922 2.17707e-05 0)
(0.322791 2.2116e-05 0)
(0.322661 2.14337e-05 0)
(0.322537 2.05788e-05 0)
(0.322414 1.97548e-05 0)
(0.3223 1.90483e-05 0)
(0.322185 1.83304e-05 0)
(0.322076 1.89169e-05 0)
(0.32196 1.86879e-05 0)
(0.321856 1.74358e-05 0)
(0.321748 1.69176e-05 0)
(0.321653 1.69555e-05 0)
(0.321543 1.76141e-05 0)
(0.321453 1.54918e-05 0)
(0.321353 1.56677e-05 0)
(0.321269 1.48134e-05 0)
(0.321174 1.3677e-05 0)
(0.321104 1.33129e-05 0)
(0.321002 1.38904e-05 0)
(0.320937 1.32366e-05 0)
(0.320833 1.35631e-05 0)
(0.320781 1.13851e-05 0)
(0.320676 1.31046e-05 0)
(0.320628 1.03613e-05 0)
(0.320526 1.23687e-05 0)
(0.320495 5.03094e-06 0)
(0.320394 6.95585e-06 0)
(0.320447 -2.33037e-05 0)
(0.320518 -4.58257e-06 0)
(1.0114 0.0502387 0)
(1.03997 0.048747 0)
(1.02553 0.0348174 0)
(0.984217 0.0254166 0)
(0.930308 0.0186102 0)
(0.877832 0.0138909 0)
(0.829979 0.0105623 0)
(0.787815 0.00828082 0)
(0.751554 0.00664238 0)
(0.720527 0.00547708 0)
(0.694096 0.00458181 0)
(0.67134 0.00388193 0)
(0.651696 0.00335532 0)
(0.634556 0.00290217 0)
(0.619479 0.00254323 0)
(0.606144 0.00226162 0)
(0.594224 0.00202806 0)
(0.583585 0.00183155 0)
(0.573946 0.00166738 0)
(0.565227 0.00151948 0)
(0.55726 0.00139923 0)
(0.549977 0.00129182 0)
(0.543269 0.00119974 0)
(0.537066 0.00111349 0)
(0.531341 0.00103753 0)
(0.525994 0.000976184 0)
(0.521012 0.000916691 0)
(0.516344 0.000866211 0)
(0.511962 0.000816669 0)
(0.507851 0.000774102 0)
(0.503964 0.000734426 0)
(0.500294 0.000700013 0)
(0.496815 0.00066602 0)
(0.493522 0.000635393 0)
(0.490388 0.000608116 0)
(0.487408 0.000582351 0)
(0.484559 0.000556996 0)
(0.481848 0.00053567 0)
(0.479245 0.000514376 0)
(0.476767 0.000494537 0)
(0.474378 0.000477419 0)
(0.472093 0.000459449 0)
(0.469893 0.000444183 0)
(0.46778 0.000427993 0)
(0.465744 0.000414274 0)
(0.463784 0.000400926 0)
(0.461889 0.000388816 0)
(0.460063 0.000376068 0)
(0.458296 0.000365409 0)
(0.456589 0.000353746 0)
(0.454937 0.000343634 0)
(0.453339 0.000333807 0)
(0.451788 0.000324844 0)
(0.450285 0.000315476 0)
(0.448828 0.000307055 0)
(0.447412 0.000298727 0)
(0.44604 0.000290849 0)
(0.444704 0.000283678 0)
(0.443406 0.00027626 0)
(0.442143 0.000269593 0)
(0.440914 0.000262785 0)
(0.439718 0.000256605 0)
(0.438552 0.000250413 0)
(0.437417 0.00024445 0)
(0.436309 0.000239098 0)
(0.43523 0.000233451 0)
(0.434176 0.000228347 0)
(0.433149 0.000223022 0)
(0.432146 0.000218271 0)
(0.431166 0.000213393 0)
(0.430209 0.000208855 0)
(0.429274 0.000204434 0)
(0.428361 0.000200307 0)
(0.427466 0.000196052 0)
(0.426594 0.000192046 0)
(0.425738 0.00018814 0)
(0.424903 0.000184256 0)
(0.424084 0.0001806 0)
(0.423285 0.000176868 0)
(0.422501 0.000173598 0)
(0.421734 0.000170106 0)
(0.420982 0.00016704 0)
(0.420246 0.000163728 0)
(0.419524 0.000160917 0)
(0.418817 0.000157778 0)
(0.418123 0.000155081 0)
(0.417443 0.000152164 0)
(0.416776 0.00014948 0)
(0.416123 0.000146634 0)
(0.415481 0.000144044 0)
(0.414854 0.000141099 0)
(0.414238 0.000138443 0)
(0.413636 0.000135372 0)
(0.413046 0.0001328 0)
(0.412469 0.000129896 0)
(0.411903 0.000127569 0)
(0.411348 0.000125023 0)
(0.410804 0.000123084 0)
(0.410267 0.00012123 0)
(0.409739 0.000119995 0)
(0.409215 0.000118927 0)
(0.408699 0.000118441 0)
(0.408183 0.000118187 0)
(0.407673 0.000118101 0)
(0.407162 0.000118099 0)
(0.406656 0.000118334 0)
(0.406148 0.000118717 0)
(0.405645 0.000118554 0)
(0.405143 0.000118668 0)
(0.404644 0.000118565 0)
(0.404149 0.000118709 0)
(0.403655 0.000118478 0)
(0.40317 0.000117128 0)
(0.402689 0.000115717 0)
(0.402221 0.000113753 0)
(0.401757 0.000112002 0)
(0.401309 0.000108471 0)
(0.400868 0.000106069 0)
(0.400442 0.000103345 0)
(0.400026 0.00010056 0)
(0.399624 9.84347e-05 0)
(0.399229 9.56533e-05 0)
(0.398852 9.28523e-05 0)
(0.398478 9.09474e-05 0)
(0.398119 8.7952e-05 0)
(0.397765 8.59331e-05 0)
(0.397422 8.43099e-05 0)
(0.397084 8.23109e-05 0)
(0.396757 8.06484e-05 0)
(0.396431 7.91012e-05 0)
(0.396118 7.74791e-05 0)
(0.395806 7.61596e-05 0)
(0.395506 7.4067e-05 0)
(0.395206 7.26318e-05 0)
(0.394918 7.11504e-05 0)
(0.394631 6.91196e-05 0)
(0.394357 6.69744e-05 0)
(0.394084 6.57723e-05 0)
(0.393821 6.50997e-05 0)
(0.393557 6.41675e-05 0)
(0.393303 6.30125e-05 0)
(0.393048 6.20266e-05 0)
(0.392803 6.11151e-05 0)
(0.392556 6.04554e-05 0)
(0.392318 5.98099e-05 0)
(0.392076 5.91041e-05 0)
(0.391844 5.84238e-05 0)
(0.391607 5.76659e-05 0)
(0.391382 5.58475e-05 0)
(0.391156 5.49977e-05 0)
(0.390938 5.49224e-05 0)
(0.390716 5.44218e-05 0)
(0.390506 5.27773e-05 0)
(0.390295 5.16027e-05 0)
(0.390091 5.15889e-05 0)
(0.389884 5.09219e-05 0)
(0.389685 4.97428e-05 0)
(0.389485 4.83554e-05 0)
(0.389297 4.71738e-05 0)
(0.389106 4.67004e-05 0)
(0.388923 4.72475e-05 0)
(0.388732 4.61811e-05 0)
(0.388557 4.362e-05 0)
(0.388381 4.33731e-05 0)
(0.388208 4.35073e-05 0)
(0.388033 4.25513e-05 0)
(0.387869 4.10379e-05 0)
(0.387702 4.08298e-05 0)
(0.38754 4.07574e-05 0)
(0.387377 3.93447e-05 0)
(0.387222 3.79953e-05 0)
(0.387069 3.78522e-05 0)
(0.386915 3.83097e-05 0)
(0.386761 3.71804e-05 0)
(0.386615 3.59176e-05 0)
(0.386468 3.45535e-05 0)
(0.386331 3.33708e-05 0)
(0.386194 3.22261e-05 0)
(0.386063 3.29057e-05 0)
(0.385926 3.23751e-05 0)
(0.385803 3.05593e-05 0)
(0.385674 2.95531e-05 0)
(0.38556 2.95608e-05 0)
(0.385431 3.01467e-05 0)
(0.385324 2.7162e-05 0)
(0.385205 2.71055e-05 0)
(0.385105 2.59963e-05 0)
(0.384989 2.41475e-05 0)
(0.384904 2.39151e-05 0)
(0.384782 2.44515e-05 0)
(0.384701 2.37391e-05 0)
(0.384576 2.3716e-05 0)
(0.38451 2.10409e-05 0)
(0.384384 2.30326e-05 0)
(0.384324 1.94921e-05 0)
(0.384199 2.17876e-05 0)
(0.384154 1.27747e-05 0)
(0.384023 1.23273e-05 0)
(0.384066 -3.13443e-05 0)
(0.384106 -6.05681e-06 0)
(1.00996 0.0450831 0)
(1.05306 0.0485502 0)
(1.05269 0.0361578 0)
(1.04254 0.0289501 0)
(1.01961 0.0233616 0)
(0.98862 0.019072 0)
(0.954427 0.0156866 0)
(0.91899 0.0130652 0)
(0.88453 0.0109461 0)
(0.85197 0.00927074 0)
(0.822304 0.00788793 0)
(0.795482 0.00676173 0)
(0.771522 0.00586874 0)
(0.750129 0.00511019 0)
(0.731023 0.00449686 0)
(0.713895 0.00400116 0)
(0.698524 0.00358222 0)
(0.684705 0.00322948 0)
(0.672169 0.00293339 0)
(0.660783 0.00266914 0)
(0.650399 0.00244933 0)
(0.640888 0.00225507 0)
(0.632139 0.00208743 0)
(0.624057 0.00193338 0)
(0.616592 0.00179782 0)
(0.609638 0.00168459 0)
(0.603171 0.00157736 0)
(0.597124 0.00148513 0)
(0.59146 0.00139651 0)
(0.586155 0.00131978 0)
(0.58115 0.00124919 0)
(0.576434 0.00118643 0)
(0.571976 0.00112612 0)
(0.567763 0.00107166 0)
(0.563761 0.00102258 0)
(0.559966 0.00097705 0)
(0.556344 0.000933061 0)
(0.552903 0.00089475 0)
(0.549608 0.0008574 0)
(0.546473 0.000822695 0)
(0.543461 0.000792274 0)
(0.540583 0.000761232 0)
(0.537819 0.000734223 0)
(0.535167 0.000706664 0)
(0.532616 0.00068255 0)
(0.530165 0.000659371 0)
(0.5278 0.000638155 0)
(0.525524 0.000616517 0)
(0.523326 0.0005978 0)
(0.521206 0.00057815 0)
(0.519157 0.000560725 0)
(0.517176 0.000543955 0)
(0.515259 0.00052847 0)
(0.513403 0.00051271 0)
(0.511606 0.000498369 0)
(0.509861 0.000484324 0)
(0.508172 0.000470972 0)
(0.506531 0.000458735 0)
(0.504938 0.000446355 0)
(0.50339 0.000435056 0)
(0.501884 0.000423698 0)
(0.500421 0.000413256 0)
(0.498996 0.000402926 0)
(0.497611 0.000392967 0)
(0.496261 0.000383899 0)
(0.494946 0.000374579 0)
(0.493664 0.000366024 0)
(0.492414 0.000357269 0)
(0.491196 0.000349313 0)
(0.490007 0.000341281 0)
(0.488847 0.000333735 0)
(0.487715 0.000326409 0)
(0.486609 0.000319548 0)
(0.485528 0.000312562 0)
(0.484473 0.000305958 0)
(0.48344 0.000299514 0)
(0.482433 0.000293167 0)
(0.481446 0.000287146 0)
(0.480483 0.000281068 0)
(0.479539 0.000275621 0)
(0.478617 0.000269971 0)
(0.477713 0.000264872 0)
(0.476829 0.000259509 0)
(0.475963 0.000254805 0)
(0.475115 0.000249738 0)
(0.474284 0.000245245 0)
(0.47347 0.000240511 0)
(0.472672 0.000236076 0)
(0.471891 0.000231482 0)
(0.471125 0.000227219 0)
(0.470376 0.000222529 0)
(0.469641 0.000218213 0)
(0.468923 0.000213419 0)
(0.468219 0.000209267 0)
(0.46753 0.000204748 0)
(0.466856 0.000200975 0)
(0.466194 0.000197008 0)
(0.465545 0.000193861 0)
(0.464906 0.000190895 0)
(0.464278 0.000188777 0)
(0.463656 0.000186912 0)
(0.463043 0.000185859 0)
(0.462434 0.000185109 0)
(0.461831 0.000184634 0)
(0.46123 0.000184303 0)
(0.460636 0.000184231 0)
(0.460042 0.000184289 0)
(0.459456 0.000183646 0)
(0.458872 0.000183392 0)
(0.458294 0.000182791 0)
(0.457722 0.000182428 0)
(0.457154 0.00018143 0)
(0.456598 0.000179128 0)
(0.456048 0.000176667 0)
(0.455512 0.000173531 0)
(0.454983 0.000170522 0)
(0.454471 0.000165372 0)
(0.453969 0.000161574 0)
(0.453483 0.000157278 0)
(0.453009 0.000152888 0)
(0.452552 0.000149373 0)
(0.452104 0.000145064 0)
(0.451674 0.000140895 0)
(0.45125 0.000137847 0)
(0.450842 0.000133538 0)
(0.450439 0.000130476 0)
(0.45005 0.000127894 0)
(0.449665 0.00012487 0)
(0.449294 0.00012235 0)
(0.448924 0.000119924 0)
(0.448569 0.000117424 0)
(0.448215 0.000115315 0)
(0.447875 0.000112356 0)
(0.447535 0.000110193 0)
(0.447208 0.000107915 0)
(0.446883 0.000104951 0)
(0.446571 0.000101941 0)
(0.446261 0.000100066 0)
(0.445961 9.88127e-05 0)
(0.445662 9.72611e-05 0)
(0.445374 9.54966e-05 0)
(0.445086 9.39268e-05 0)
(0.444808 9.25285e-05 0)
(0.444529 9.14544e-05 0)
(0.444259 9.04593e-05 0)
(0.443986 8.93538e-05 0)
(0.443723 8.83117e-05 0)
(0.443457 8.71186e-05 0)
(0.443202 8.46415e-05 0)
(0.442946 8.33854e-05 0)
(0.442698 8.29685e-05 0)
(0.442449 8.19485e-05 0)
(0.442211 7.9657e-05 0)
(0.441972 7.8057e-05 0)
(0.441742 7.77961e-05 0)
(0.441508 7.67422e-05 0)
(0.441285 7.5125e-05 0)
(0.441059 7.31464e-05 0)
(0.440845 7.14103e-05 0)
(0.440629 7.05356e-05 0)
(0.440422 7.09792e-05 0)
(0.440209 6.94683e-05 0)
(0.44001 6.60598e-05 0)
(0.43981 6.56787e-05 0)
(0.439614 6.56626e-05 0)
(0.439418 6.41662e-05 0)
(0.439232 6.21352e-05 0)
(0.439043 6.1796e-05 0)
(0.438859 6.15479e-05 0)
(0.438674 5.95927e-05 0)
(0.438498 5.77182e-05 0)
(0.438323 5.75395e-05 0)
(0.438148 5.79906e-05 0)
(0.437975 5.63568e-05 0)
(0.437808 5.46747e-05 0)
(0.437642 5.27431e-05 0)
(0.437485 5.10304e-05 0)
(0.437328 4.93633e-05 0)
(0.437178 5.00306e-05 0)
(0.437023 4.90887e-05 0)
(0.436882 4.66704e-05 0)
(0.436736 4.5092e-05 0)
(0.436605 4.49957e-05 0)
(0.43646 4.53813e-05 0)
(0.436337 4.15449e-05 0)
(0.436201 4.11539e-05 0)
(0.436087 3.98261e-05 0)
(0.435954 3.71997e-05 0)
(0.435854 3.71615e-05 0)
(0.435715 3.7588e-05 0)
(0.43562 3.6892e-05 0)
(0.435477 3.63472e-05 0)
(0.435398 3.32515e-05 0)
(0.435254 3.53008e-05 0)
(0.435183 3.10825e-05 0)
(0.43504 3.36301e-05 0)
(0.434981 2.34815e-05 0)
(0.434829 1.96781e-05 0)
(0.434853 -3.60315e-05 0)
(0.434856 -5.99956e-06 0)
(1.00868 0.0410967 0)
(1.05097 0.0471189 0)
(1.05922 0.0351968 0)
(1.05737 0.0295421 0)
(1.05143 0.025302 0)
(1.03899 0.0217756 0)
(1.02199 0.0190023 0)
(1.00103 0.0167634 0)
(0.977523 0.0147762 0)
(0.952116 0.0130537 0)
(0.926175 0.0114844 0)
(0.900542 0.0101015 0)
(0.87598 0.00891851 0)
(0.852919 0.00786975 0)
(0.831587 0.0069879 0)
(0.81192 0.00624959 0)
(0.793922 0.00561015 0)
(0.777494 0.00506587 0)
(0.762447 0.00460389 0)
(0.748652 0.00419136 0)
(0.736021 0.00384162 0)
(0.72439 0.00353358 0)
(0.713669 0.00326612 0)
(0.70374 0.00302226 0)
(0.694556 0.00280692 0)
(0.686005 0.00262383 0)
(0.678045 0.00245264 0)
(0.670606 0.00230382 0)
(0.663644 0.00216269 0)
(0.657122 0.00203983 0)
(0.650978 0.00192728 0)
(0.645194 0.00182604 0)
(0.639733 0.00173026 0)
(0.634574 0.0016436 0)
(0.629684 0.00156493 0)
(0.625049 0.00149273 0)
(0.620633 0.00142374 0)
(0.61644 0.0013624 0)
(0.612434 0.00130345 0)
(0.608624 0.00124877 0)
(0.60497 0.00120031 0)
(0.601483 0.00115173 0)
(0.598139 0.0011089 0)
(0.594933 0.0010662 0)
(0.591855 0.00102813 0)
(0.588899 0.000991732 0)
(0.586054 0.000958295 0)
(0.583317 0.000924855 0)
(0.580678 0.000895323 0)
(0.578134 0.000865122 0)
(0.57568 0.000838002 0)
(0.573309 0.000811994 0)
(0.571018 0.000787831 0)
(0.568801 0.000763681 0)
(0.566657 0.000741492 0)
(0.564579 0.000719923 0)
(0.562567 0.000699364 0)
(0.560616 0.000680436 0)
(0.558723 0.000661567 0)
(0.556886 0.000644177 0)
(0.5551 0.000626876 0)
(0.553367 0.000610842 0)
(0.55168 0.000595112 0)
(0.550042 0.000579941 0)
(0.548446 0.000566002 0)
(0.546894 0.000551915 0)
(0.545382 0.000538858 0)
(0.543909 0.000525672 0)
(0.542474 0.000513549 0)
(0.541074 0.000501439 0)
(0.53971 0.000489995 0)
(0.538379 0.000478912 0)
(0.537081 0.000468501 0)
(0.535812 0.000457999 0)
(0.534575 0.000448046 0)
(0.533365 0.000438334 0)
(0.532185 0.000428828 0)
(0.53103 0.000419767 0)
(0.529903 0.000410688 0)
(0.5288 0.000402434 0)
(0.527723 0.000394025 0)
(0.526667 0.000386303 0)
(0.525636 0.000378317 0)
(0.524626 0.000371166 0)
(0.523638 0.000363635 0)
(0.52267 0.000356826 0)
(0.521724 0.000349772 0)
(0.520796 0.000343098 0)
(0.519888 0.000336285 0)
(0.518999 0.000329893 0)
(0.518129 0.000323018 0)
(0.517276 0.000316617 0)
(0.516443 0.000309694 0)
(0.515626 0.000303565 0)
(0.514827 0.000297053 0)
(0.514045 0.000291462 0)
(0.513277 0.000285725 0)
(0.512525 0.000281027 0)
(0.511785 0.000276626 0)
(0.511058 0.000273302 0)
(0.51034 0.000270322 0)
(0.509633 0.000268393 0)
(0.508932 0.000266833 0)
(0.50824 0.000265683 0)
(0.507552 0.000264733 0)
(0.506873 0.000264053 0)
(0.506197 0.000263462 0)
(0.505531 0.000262044 0)
(0.50487 0.0002611 0)
(0.504217 0.000259662 0)
(0.503572 0.000258426 0)
(0.502936 0.000256295 0)
(0.502312 0.000252704 0)
(0.501698 0.000248869 0)
(0.501099 0.000244277 0)
(0.500509 0.000239695 0)
(0.499939 0.000232676 0)
(0.499378 0.000227158 0)
(0.498838 0.000220952 0)
(0.49831 0.000214639 0)
(0.497801 0.000209373 0)
(0.497304 0.000203276 0)
(0.496826 0.000197526 0)
(0.496354 0.000193062 0)
(0.495901 0.000187252 0)
(0.495454 0.000182967 0)
(0.495021 0.000179214 0)
(0.494594 0.000174985 0)
(0.494181 0.000171435 0)
(0.493772 0.000167948 0)
(0.493377 0.000164401 0)
(0.492985 0.00016132 0)
(0.492607 0.000157374 0)
(0.492231 0.000154352 0)
(0.491868 0.000151123 0)
(0.491508 0.000147111 0)
(0.491162 0.000143163 0)
(0.490817 0.000140483 0)
(0.490484 0.000138464 0)
(0.490153 0.000136133 0)
(0.489833 0.000133658 0)
(0.489514 0.00013138 0)
(0.489206 0.000129396 0)
(0.488897 0.000127816 0)
(0.488598 0.000126367 0)
(0.488297 0.000124766 0)
(0.488006 0.00012328 0)
(0.487713 0.000121583 0)
(0.487431 0.000118459 0)
(0.487147 0.000116774 0)
(0.486872 0.000115854 0)
(0.486597 0.000114127 0)
(0.486334 0.000111152 0)
(0.48607 0.000109117 0)
(0.485814 0.00010846 0)
(0.485557 0.000106898 0)
(0.48531 0.000104814 0)
(0.485061 0.00010221 0)
(0.484824 9.99162e-05 0)
(0.484584 9.858e-05 0)
(0.484354 9.87149e-05 0)
(0.48412 9.66209e-05 0)
(0.483901 9.24306e-05 0)
(0.483678 9.19285e-05 0)
(0.483461 9.16161e-05 0)
(0.483244 8.9479e-05 0)
(0.483038 8.69381e-05 0)
(0.482828 8.6487e-05 0)
(0.482624 8.59868e-05 0)
(0.482419 8.34191e-05 0)
(0.482224 8.10576e-05 0)
(0.482028 8.07765e-05 0)
(0.481834 8.10441e-05 0)
(0.481643 7.88472e-05 0)
(0.481458 7.67295e-05 0)
(0.481274 7.42365e-05 0)
(0.481098 7.19797e-05 0)
(0.480923 6.97059e-05 0)
(0.480755 7.02385e-05 0)
(0.480584 6.87447e-05 0)
(0.480427 6.56937e-05 0)
(0.480264 6.3504e-05 0)
(0.480117 6.32127e-05 0)
(0.479957 6.32668e-05 0)
(0.47982 5.86073e-05 0)