/*--------------------------------*- C++ -*----------------------------------*\
  =========                 |
  \\      /  F ield         | OpenFOAM: The Open Source CFD Toolbox
   \\    /   O peration     | Website:  https://openfoam.org
    \\  /    A nd           | Version:  12
     \\/     M anipulation  |
\*---------------------------------------------------------------------------*/
FoamFile
{
    format      ascii;
    class       surfaceScalarField;
    location    "700";
    object      phi;
}
// * * * * * * * * * * * * * * * * * * * * * * * * * * * * * * * * * * * * * //

dimensions      [0 3 -1 0 0 0 0];

internalField   nonuniform List<scalar> 
39700
(
0.000289049
0.000218413
0.000158807
0.000130242
0.000114183
4.46245e-05
9.67872e-05
1.73953e-05
8.76317e-05
9.15558e-06
8.18527e-05
5.77903e-06
7.80642e-05
3.78847e-06
7.53642e-05
2.69992e-06
7.33134e-05
2.0508e-06
7.16117e-05
1.70179e-06
7.01851e-05
1.42658e-06
6.89788e-05
1.20626e-06
6.79002e-05
1.07857e-06
6.69883e-05
9.11842e-07
6.61919e-05
7.96464e-07
6.54745e-05
7.17355e-07
6.48179e-05
6.56611e-07
6.42104e-05
6.07475e-07
6.36449e-05
5.65551e-07
6.31252e-05
5.19622e-07
6.2635e-05
4.90269e-07
6.21727e-05
4.62219e-07
6.17355e-05
4.3728e-07
6.13242e-05
4.11252e-07
6.09368e-05
3.87371e-07
6.05638e-05
3.73021e-07
6.02096e-05
3.54225e-07
5.98679e-05
3.4173e-07
5.95422e-05
3.25691e-07
5.92284e-05
3.13809e-07
5.89283e-05
3.00041e-07
5.86372e-05
2.91156e-07
5.83575e-05
2.79656e-07
5.80876e-05
2.69893e-07
5.78258e-05
2.61767e-07
5.75727e-05
2.53097e-07
5.73295e-05
2.43255e-07
5.70925e-05
2.36986e-07
5.68631e-05
2.2936e-07
5.66409e-05
2.22219e-07
5.6424e-05
2.16947e-07
5.62144e-05
2.09617e-07
5.60093e-05
2.05016e-07
5.58114e-05
1.97953e-07
5.56178e-05
1.9361e-07
5.54295e-05
1.88242e-07
5.52453e-05
1.84259e-07
5.50668e-05
1.78521e-07
5.48916e-05
1.75173e-07
5.47218e-05
1.69778e-07
5.45556e-05
1.66167e-07
5.43936e-05
1.62035e-07
5.42348e-05
1.58766e-07
5.40802e-05
1.54644e-07
5.39289e-05
1.51301e-07
5.37812e-05
1.47694e-07
5.36367e-05
1.44467e-07
5.34951e-05
1.41661e-07
5.33568e-05
1.3825e-07
5.32213e-05
1.35557e-07
5.30888e-05
1.32477e-07
5.29589e-05
1.29912e-07
5.28317e-05
1.2717e-07
5.27072e-05
1.24474e-07
5.25848e-05
1.22395e-07
5.24652e-05
1.19621e-07
5.23477e-05
1.17545e-07
5.22328e-05
1.14895e-07
5.21198e-05
1.12979e-07
5.20092e-05
1.10594e-07
5.19006e-05
1.08649e-07
5.1794e-05
1.0658e-07
5.16892e-05
1.04787e-07
5.15865e-05
1.02707e-07
5.14855e-05
1.00935e-07
5.13865e-05
9.9045e-08
5.12892e-05
9.72977e-08
5.11936e-05
9.55572e-08
5.10999e-05
9.37774e-08
5.10075e-05
9.23673e-08
5.09169e-05
9.05997e-08
5.08277e-05
8.92394e-08
5.07402e-05
8.75013e-08
5.06539e-05
8.62788e-08
5.05693e-05
8.45631e-08
5.04859e-05
8.34123e-08
5.04041e-05
8.17892e-08
5.03234e-05
8.06745e-08
5.02443e-05
7.91905e-08
5.01661e-05
7.81221e-08
5.00895e-05
7.66638e-08
5.00138e-05
7.56708e-08
4.99396e-05
7.42356e-08
4.98662e-05
7.33123e-08
4.97943e-05
7.19562e-08
4.97233e-05
7.10284e-08
4.96535e-05
6.97802e-08
4.95846e-05
6.88434e-08
4.95169e-05
6.77117e-08
4.94501e-05
6.67836e-08
4.93844e-05
6.56866e-08
4.93196e-05
6.48019e-08
4.92559e-05
6.37408e-08
4.9193e-05
6.28832e-08
4.91311e-05
6.18987e-08
4.90701e-05
6.10378e-08
4.90099e-05
6.01664e-08
4.89507e-05
5.92525e-08
4.88922e-05
5.85025e-08
4.88346e-05
5.75645e-08
4.87777e-05
5.68496e-08
4.87218e-05
5.59358e-08
4.86665e-05
5.52693e-08
4.86122e-05
5.43802e-08
4.85584e-05
5.37474e-08
4.85055e-05
5.2889e-08
4.84533e-05
5.22578e-08
4.84018e-05
5.14641e-08
4.8351e-05
5.08233e-08
4.83009e-05
5.00933e-08
4.82514e-05
4.94729e-08
4.82026e-05
4.87555e-08
4.81545e-05
4.8157e-08
4.8107e-05
4.74527e-08
4.80601e-05
4.68828e-08
4.80139e-05
4.62086e-08
4.79683e-05
4.56469e-08
4.79233e-05
4.50155e-08
4.78788e-05
4.44427e-08
4.7835e-05
4.3872e-08
4.77917e-05
4.32801e-08
4.77489e-05
4.27705e-08
4.77067e-05
4.21746e-08
4.7665e-05
4.16875e-08
4.76239e-05
4.10995e-08
4.75833e-05
4.06376e-08
4.75432e-05
4.00595e-08
4.75036e-05
3.96187e-08
4.74645e-05
3.90556e-08
4.74259e-05
3.86271e-08
4.73878e-05
3.80883e-08
4.73502e-05
3.76595e-08
4.7313e-05
3.71568e-08
4.72763e-05
3.67259e-08
4.724e-05
3.62534e-08
4.72042e-05
3.58346e-08
4.71688e-05
3.53682e-08
4.71339e-05
3.49656e-08
4.70993e-05
3.45079e-08
4.70652e-05
3.41236e-08
4.70316e-05
3.36738e-08
4.69983e-05
3.32994e-08
4.69654e-05
3.28717e-08
4.69329e-05
3.24993e-08
4.69008e-05
3.20911e-08
4.68691e-05
3.17165e-08
4.68377e-05
3.13468e-08
4.68068e-05
3.09639e-08
4.67761e-05
3.06136e-08
4.67459e-05
3.02345e-08
4.6716e-05
2.9902e-08
4.66865e-05
2.95325e-08
4.66573e-05
2.92059e-08
4.66284e-05
2.88377e-08
4.65999e-05
2.85192e-08
4.65718e-05
2.81641e-08
4.65439e-05
2.78534e-08
4.65164e-05
2.75193e-08
4.64892e-05
2.72123e-08
4.64623e-05
2.69004e-08
4.64357e-05
2.65878e-08
4.64094e-05
2.63096e-08
4.63834e-05
2.59736e-08
4.63577e-05
2.57334e-08
4.63323e-05
2.54056e-08
4.6307e-05
2.52557e-08
4.62821e-05
2.48828e-08
4.62573e-05
2.48186e-08
4.6233e-05
2.43506e-08
4.62085e-05
2.4452e-08
4.61847e-05
2.38152e-08
4.61605e-05
2.41754e-08
4.61372e-05
2.32864e-08
4.61132e-05
2.40713e-08
4.60905e-05
2.27135e-08
4.60664e-05
2.41225e-08
4.60444e-05
2.19952e-08
4.60199e-05
2.44325e-08
4.59988e-05
2.111e-08
4.59736e-05
2.52287e-08
4.59537e-05
1.99092e-08
4.59268e-05
2.68684e-08
4.59086e-05
1.8188e-08
4.58796e-05
2.90837e-08
4.5863e-05
1.65619e-08
4.58316e-05
3.14023e-08
4.58167e-05
1.49072e-08
4.57814e-05
3.52775e-08
4.57777e-05
3.72726e-09
1.13695e-07
0.000488265
0.000262025
0.000397813
0.000220694
0.000326641
0.000115797
0.000282375
6.16612e-05
0.00025484
3.66905e-05
0.000236495
2.41238e-05
0.000223525
1.67588e-05
0.000213782
1.24425e-05
0.000206135
9.69782e-06
0.000199858
7.97831e-06
0.000194621
6.66402e-06
0.000190196
5.63126e-06
0.000186355
4.91981e-06
0.000183052
4.21405e-06
0.000180164
3.68444e-06
0.000177589
3.29322e-06
0.000175266
2.9788e-06
0.000173159
2.7147e-06
0.00017123
2.49432e-06
0.000169467
2.2828e-06
0.000167834
2.12379e-06
0.000166318
1.97782e-06
0.000164903
1.85219e-06
0.000163586
1.72892e-06
0.000162354
1.61909e-06
0.000161189
1.53832e-06
0.00016009
1.45303e-06
0.000159047
1.38496e-06
0.000158059
1.31305e-06
0.00015712
1.25311e-06
0.000156226
1.194e-06
0.00015537
1.14718e-06
0.000154553
1.09661e-06
0.000153771
1.05183e-06
0.00015302
1.0131e-06
0.000152298
9.74522e-07
0.000151607
9.3466e-07
0.00015094
9.04283e-07
0.000150297
8.71679e-07
0.000149678
8.41291e-07
0.000149079
8.16343e-07
0.000148501
7.87703e-07
0.00014794
7.65507e-07
0.000147399
7.38878e-07
0.000146874
7.18477e-07
0.000146365
6.97328e-07
0.00014587
6.7907e-07
0.000145391
6.57797e-07
0.000144924
6.41913e-07
0.000144472
6.22198e-07
0.000144032
6.06464e-07
0.000143603
5.90475e-07
0.000143185
5.76582e-07
0.000142779
5.60966e-07
0.000142383
5.4743e-07
0.000141997
5.33627e-07
0.000141621
5.20864e-07
0.000141253
5.09381e-07
0.000140894
4.96795e-07
0.000140544
4.85947e-07
0.000140202
4.74454e-07
0.000139868
4.64322e-07
0.000139541
4.53918e-07
0.000139222
4.43845e-07
0.000138909
4.35276e-07
0.000138603
4.25405e-07
0.000138303
4.17079e-07
0.000138011
4.07702e-07
0.000137724
3.99981e-07
0.000137443
3.91456e-07
0.000137167
3.83902e-07
0.000136898
3.76303e-07
0.000136633
3.69416e-07
0.000136374
3.6196e-07
0.000136119
3.55249e-07
0.00013587
3.48388e-07
0.000135626
3.41912e-07
0.000135386
3.35515e-07
0.00013515
3.29137e-07
0.000134919
3.23624e-07
0.000134692
3.175e-07
0.000134469
3.12228e-07
0.00013425
3.06272e-07
0.000134035
3.01406e-07
0.000133824
2.9564e-07
0.000133616
2.91019e-07
0.000133413
2.85592e-07
0.000133212
2.81148e-07
0.000133015
2.76143e-07
0.000132821
2.7195e-07
0.000132631
2.67067e-07
0.000132444
2.63128e-07
0.000132259
2.58379e-07
0.000132078
2.54691e-07
0.0001319
2.50172e-07
0.000131724
2.46557e-07
0.000131552
2.42363e-07
0.000131382
2.38805e-07
0.000131215
2.34933e-07
0.00013105
2.31496e-07
0.000130888
2.27739e-07
0.000130728
2.24458e-07
0.000130571
2.20834e-07
0.000130416
2.1769e-07
0.000130264
2.14289e-07
0.000130114
2.11196e-07
0.000129966
2.08086e-07
0.00012982
2.0493e-07
0.000129676
2.02142e-07
0.000129535
1.99009e-07
0.000129395
1.96335e-07
0.000129258
1.933e-07
0.000129123
1.90775e-07
0.000128989
1.87833e-07
0.000128857
1.85427e-07
0.000128728
1.82588e-07
0.0001286
1.80222e-07
0.000128474
1.77566e-07
0.000128349
1.7522e-07
0.000128227
1.72741e-07
0.000128106
1.70494e-07
0.000127986
1.68066e-07
0.000127869
1.65897e-07
0.000127752
1.63526e-07
0.000127638
1.61455e-07
0.000127525
1.59179e-07
0.000127413
1.5716e-07
0.000127303
1.55003e-07
0.000127195
1.52992e-07
0.000127088
1.50993e-07
0.000126982
1.48973e-07
0.000126878
1.47134e-07
0.000126775
1.45141e-07
0.000126673
1.43368e-07
0.000126573
1.41415e-07
0.000126474
1.39721e-07
0.000126376
1.37811e-07
0.000126279
1.36187e-07
0.000126184
1.3433e-07
0.00012609
1.32755e-07
0.000125997
1.30972e-07
0.000125905
1.29417e-07
0.000125815
1.27733e-07
0.000125725
1.26196e-07
0.000125637
1.24598e-07
0.00012555
1.23113e-07
0.000125463
1.21543e-07
0.000125378
1.20108e-07
0.000125294
1.18575e-07
0.000125211
1.172e-07
0.000125129
1.15697e-07
0.000125048
1.14361e-07
0.000124968
1.12924e-07
0.000124889
1.11611e-07
0.000124811
1.10228e-07
0.000124734
1.08927e-07
0.000124657
1.07645e-07
0.000124582
1.06344e-07
0.000124507
1.05118e-07
0.000124434
1.03842e-07
0.000124361
1.02666e-07
0.000124289
1.01425e-07
0.000124218
1.0028e-07
0.000124148
9.90494e-08
0.000124078
9.793e-08
0.00012401
9.67391e-08
0.000123942
9.56589e-08
0.000123875
9.45176e-08
0.000123809
9.34673e-08
0.000123743
9.23831e-08
0.000123679
9.13477e-08
0.000123615
9.03306e-08
0.000123551
8.92801e-08
0.000123489
8.83303e-08
0.000123427
8.73557e-08
0.000123365
8.65851e-08
0.000123305
8.56077e-08
0.000123244
8.49716e-08
0.000123185
8.38925e-08
0.000123126
8.35202e-08
0.000123067
8.22453e-08
0.000123009
8.22875e-08
0.000122952
8.07132e-08
0.000122895
8.1451e-08
0.000122838
7.92274e-08
0.000122781
8.09602e-08
0.000122726
7.75603e-08
0.000122669
8.09968e-08
0.000122614
7.5703e-08
0.000122558
8.2169e-08
0.000122504
7.33084e-08
0.000122445
8.55832e-08
0.000122394
6.97541e-08
0.000122332
9.04674e-08
0.000122282
6.69877e-08
0.000122218
9.54096e-08
0.000122166
6.7028e-08
0.000122099
1.02621e-07
0.000122052
5.06076e-08
2.65177e-07
0.000561758
0.000257735
0.000533662
0.00024879
0.00048896
0.000160499
0.000442259
0.000108362
0.000405035
7.39155e-05
0.000376227
5.29318e-05
0.000353825
3.91606e-05
0.000336077
3.01907e-05
0.000321763
2.40116e-05
0.000309969
1.97718e-05
0.000300108
1.65254e-05
0.000291758
1.39812e-05
0.000284579
1.20986e-05
0.000278356
1.04369e-05
0.000272902
9.13832e-06
0.000268058
8.13815e-06
0.000263724
7.31256e-06
0.000259822
6.61608e-06
0.00025628
6.03713e-06
0.000253055
5.50749e-06
0.000250095
5.08405e-06
0.000247369
4.70321e-06
0.000244845
4.37674e-06
0.000242506
4.0677e-06
0.00024033
3.79465e-06
0.00023829
3.57836e-06
0.000236378
3.36524e-06
0.000234577
3.18632e-06
0.000232881
3.00831e-06
0.000231278
2.85608e-06
0.00022976
2.71276e-06
0.000228316
2.5905e-06
0.000226945
2.46752e-06
0.00022564
2.35729e-06
0.000224393
2.25978e-06
0.000223202
2.16634e-06
0.000222063
2.07358e-06
0.00022097
1.99715e-06
0.000219922
1.91945e-06
0.000218916
1.84717e-06
0.000217947
1.78551e-06
0.000217015
1.71968e-06
0.000216116
1.66479e-06
0.00021525
1.60496e-06
0.000214413
1.55532e-06
0.000213604
1.50637e-06
0.00021282
1.46232e-06
0.000212063
1.41494e-06
0.000211329
1.37627e-06
0.000210618
1.33286e-06
0.000209929
1.29588e-06
0.00020926
1.25966e-06
0.000208609
1.22706e-06
0.000207978
1.19238e-06
0.000207364
1.16147e-06
0.000206767
1.13068e-06
0.000206186
1.10176e-06
0.00020562
1.07543e-06
0.000205069
1.04787e-06
0.000204531
1.02327e-06
0.000204008
9.98026e-07
0.000203497
9.75205e-07
0.000202999
9.52282e-07
0.000202512
9.3014e-07
0.000202037
9.10579e-07
0.000201573
8.8943e-07
0.000201119
8.70745e-07
0.000200676
8.50757e-07
0.000200243
8.33399e-07
0.000199819
8.15151e-07
0.000199405
7.98451e-07
0.000198999
7.81984e-07
0.000198601
7.66807e-07
0.000198213
7.50899e-07
0.000197832
7.36252e-07
0.000197458
7.21547e-07
0.000197093
7.07553e-07
0.000196734
6.93823e-07
0.000196383
6.80233e-07
0.000196039
6.68083e-07
0.000195701
6.55248e-07
0.00019537
6.4371e-07
0.000195045
6.31311e-07
0.000194725
6.20565e-07
0.000194412
6.08684e-07
0.000194105
5.98469e-07
0.000193803
5.87319e-07
0.000193507
5.77532e-07
0.000193216
5.67205e-07
0.00019293
5.58031e-07
0.000192649
5.48016e-07
0.000192372
5.3938e-07
0.000192101
5.29706e-07
0.000191834
5.21591e-07
0.000191572
5.12374e-07
0.000191314
5.04515e-07
0.000191061
4.95921e-07
0.000190811
4.88263e-07
0.000190566
4.80275e-07
0.000190324
4.72956e-07
0.000190087
4.65219e-07
0.000189853
4.58233e-07
0.000189623
4.50791e-07
0.000189397
4.44123e-07
0.000189174
4.37106e-07
0.000188954
4.30602e-07
0.000188738
4.24107e-07
0.000188526
4.17596e-07
0.000188316
4.11675e-07
0.00018811
4.05315e-07
0.000187907
3.99627e-07
0.000187706
3.93485e-07
0.000187509
3.88091e-07
0.000187315
3.8215e-07
0.000187123
3.77006e-07
0.000186935
3.71283e-07
0.000186748
3.66256e-07
0.000186565
3.60874e-07
0.000186384
3.55941e-07
0.000186206
3.50885e-07
0.000186031
3.46179e-07
0.000185857
3.41241e-07
0.000185687
3.36704e-07
0.000185518
3.31901e-07
0.000185352
3.27563e-07
0.000185188
3.22947e-07
0.000185027
3.1874e-07
0.000184867
3.14346e-07
0.00018471
3.10197e-07
0.000184555
3.06083e-07
0.000184402
3.01968e-07
0.000184251
2.98135e-07
0.000184102
2.94111e-07
0.000183955
2.90411e-07
0.00018381
2.86484e-07
0.000183667
2.82938e-07
0.000183526
2.79111e-07
0.000183386
2.75705e-07
0.000183248
2.71991e-07
0.000183112
2.68693e-07
0.000182978
2.6512e-07
0.000182846
2.61884e-07
0.000182715
2.58493e-07
0.000182586
2.55314e-07
0.000182458
2.52084e-07
0.000182333
2.49021e-07
0.000182208
2.45858e-07
0.000182085
2.42896e-07
0.000181964
2.39813e-07
0.000181844
2.3697e-07
0.000181726
2.33956e-07
0.000181609
2.31197e-07
0.000181494
2.28306e-07
0.00018138
2.2561e-07
0.000181267
2.22822e-07
0.000181156
2.20166e-07
0.000181046
2.17553e-07
0.000180938
2.14926e-07
0.00018083
2.1242e-07
0.000180724
2.09854e-07
0.00018062
2.07442e-07
0.000180516
2.0495e-07
0.000180414
2.02609e-07
0.000180313
2.00147e-07
0.000180213
1.97864e-07
0.000180114
1.95478e-07
0.000180016
1.93279e-07
0.00017992
1.90976e-07
0.000179824
1.88853e-07
0.00017973
1.86649e-07
0.000179637
1.84584e-07
0.000179545
1.82479e-07
0.000179454
1.80444e-07
0.000179364
1.78424e-07
0.000179274
1.76565e-07
0.000179186
1.74783e-07
0.000179099
1.73033e-07
0.000179012
1.71404e-07
0.000178927
1.69639e-07
0.000178842
1.68299e-07
0.000178758
1.66443e-07
0.000178674
1.65555e-07
0.000178591
1.63535e-07
0.000178509
1.63436e-07
0.000178428
1.60869e-07
0.000178347
1.61886e-07
0.000178266
1.58118e-07
0.000178186
1.61144e-07
0.000178107
1.55266e-07
0.000178027
1.62214e-07
0.000177948
1.51815e-07
0.000177867
1.66804e-07
0.00017779
1.46949e-07
0.000177706
1.74398e-07
0.000177629
1.43464e-07
0.000177543
1.82e-07
0.000177462
1.47433e-07
0.000177374
1.9134e-07
0.000177292
1.32686e-07
4.16988e-07
0.000603275
0.000238749
0.000602013
0.000250052
0.000586361
0.000176151
0.000559303
0.00013542
0.000528239
0.00010498
0.000498889
8.2282e-05
0.000472619
6.54304e-05
0.000449705
5.31042e-05
0.000430055
4.36623e-05
0.000413268
3.65583e-05
0.000398897
3.08963e-05
0.000386512
2.63665e-05
0.000375763
2.28475e-05
0.000366352
1.98482e-05
0.000358051
1.74387e-05
0.000350673
1.55163e-05
0.000344084
1.39019e-05
0.00033816
1.25403e-05
0.000332796
1.14011e-05
0.000327922
1.03811e-05
0.000323467
9.53934e-06
0.000319379
8.79099e-06
0.000315608
8.14812e-06
0.000312123
7.55251e-06
0.000308889
7.02848e-06
0.000305871
6.59657e-06
0.000303052
6.18389e-06
0.000300408
5.83065e-06
0.000297927
5.48863e-06
0.00029559
5.19312e-06
0.000293383
4.92013e-06
0.000291294
4.67947e-06
0.000289316
4.44566e-06
0.000287438
4.23507e-06
0.000285652
4.04615e-06
0.000283949
3.86945e-06
0.000282325
3.69768e-06
0.000280772
3.54986e-06
0.000279287
3.40423e-06
0.000277865
3.26894e-06
0.0002765
3.15116e-06
0.000275189
3.02992e-06
0.000273929
2.92537e-06
0.000272717
2.81693e-06
0.000271549
2.72333e-06
0.000270422
2.63276e-06
0.000269335
2.55006e-06
0.000268285
2.46463e-06
0.00026727
2.39178e-06
0.000266288
2.31411e-06
0.000265338
2.24591e-06
0.000264418
2.18008e-06
0.000263525
2.11976e-06
0.00026266
2.05765e-06
0.00026182
2.00146e-06
0.000261004
1.94618e-06
0.000260212
1.89384e-06
0.000259442
1.84587e-06
0.000258693
1.79696e-06
0.000257964
1.7525e-06
0.000257254
1.70769e-06
0.000256562
1.66659e-06
0.000255889
1.62589e-06
0.000255232
1.58657e-06
0.000254592
1.55115e-06
0.000253967
1.51416e-06
0.000253357
1.48071e-06
0.000252762
1.44591e-06
0.000252181
1.41484e-06
0.000251613
1.38301e-06
0.000251058
1.3534e-06
0.000250515
1.32448e-06
0.000249984
1.29759e-06
0.000249465
1.26994e-06
0.000248958
1.24419e-06
0.00024846
1.21859e-06
0.000247974
1.19412e-06
0.000247497
1.17024e-06
0.000247031
1.14668e-06
0.000246574
1.12524e-06
0.000246126
1.10319e-06
0.000245687
1.08293e-06
0.000245256
1.06173e-06
0.000244834
1.04279e-06
0.00024442
1.02261e-06
0.000244014
1.00463e-06
0.000243616
9.85717e-07
0.000243225
9.68541e-07
0.000242841
9.50977e-07
0.000242464
9.34918e-07
0.000242094
9.1798e-07
0.00024173
9.02856e-07
0.000241374
8.86561e-07
0.000241023
8.72338e-07
0.000240678
8.56825e-07
0.00024034
8.43143e-07
0.000240007
8.28631e-07
0.00023968
8.15369e-07
0.000239358
8.01842e-07
0.000239042
7.89245e-07
0.000238731
7.76172e-07
0.000238425
7.64156e-07
0.000238124
7.51613e-07
0.000237828
7.40167e-07
0.000237537
7.28316e-07
0.000237251
7.1721e-07
0.000236968
7.06173e-07
0.000236691
6.95179e-07
0.000236418
6.8502e-07
0.000236148
6.74374e-07
0.000235883
6.64623e-07
0.000235623
6.54363e-07
0.000235366
6.45096e-07
0.000235113
6.35195e-07
0.000234863
6.26354e-07
0.000234618
6.16831e-07
0.000234376
6.08229e-07
0.000234137
5.99247e-07
0.000233902
5.90854e-07
0.000233671
5.82384e-07
0.000233443
5.74393e-07
0.000233218
5.66141e-07
0.000232996
5.58449e-07
0.000232777
5.50449e-07
0.000232562
5.43088e-07
0.00023235
5.35397e-07
0.00023214
5.28276e-07
0.000231933
5.20941e-07
0.00023173
5.13959e-07
0.000231529
5.07054e-07
0.00023133
5.0018e-07
0.000231135
4.93701e-07
0.000230942
4.87016e-07
0.000230752
4.8076e-07
0.000230564
4.74255e-07
0.000230379
4.68254e-07
0.000230196
4.61927e-07
0.000230015
4.56158e-07
0.000229837
4.50027e-07
0.000229661
4.44446e-07
0.000229488
4.38548e-07
0.000229317
4.33091e-07
0.000229148
4.27474e-07
0.000228981
4.22136e-07
0.000228816
4.16773e-07
0.000228654
4.11636e-07
0.000228493
4.06398e-07
0.000228335
4.01432e-07
0.000228178
3.96333e-07
0.000228024
3.91562e-07
0.000227871
3.86589e-07
0.00022772
3.81961e-07
0.000227571
3.77181e-07
0.000227424
3.72675e-07
0.000227279
3.68065e-07
0.000227135
3.63639e-07
0.000226994
3.59289e-07
0.000226854
3.54938e-07
0.000226715
3.50763e-07
0.000226579
3.46527e-07
0.000226444
3.42501e-07
0.00022631
3.38387e-07
0.000226178
3.34487e-07
0.000226048
3.30443e-07
0.000225919
3.26648e-07
0.000225792
3.22718e-07
0.000225666
3.19068e-07
0.000225542
3.15266e-07
0.000225419
3.11749e-07
0.000225298
3.08092e-07
0.000225177
3.047e-07
0.000225059
3.0118e-07
0.000224941
2.9789e-07
0.000224825
2.94471e-07
0.00022471
2.91476e-07
0.000224597
2.88334e-07
0.000224484
2.85601e-07
0.000224373
2.82625e-07
0.000224263
2.80027e-07
0.000224154
2.77327e-07
0.000224045
2.74823e-07
0.000223938
2.72556e-07
0.000223832
2.70127e-07
0.000223726
2.6865e-07
0.000223621
2.65933e-07
0.000223518
2.65585e-07
0.000223414
2.6185e-07
0.000223311
2.63654e-07
0.000223209
2.57821e-07
0.000223107
2.64228e-07
0.000223005
2.53275e-07
0.000222903
2.69474e-07
0.000222802
2.47371e-07
0.000222697
2.79429e-07
0.000222597
2.4347e-07
0.000222489
2.90306e-07
0.000222385
2.51909e-07
0.000222274
3.01723e-07
0.000222165
2.42203e-07
5.75134e-07
0.000634308
0.000216842
0.00064405
0.00024031
0.000640935
0.000179266
0.000631422
0.000144933
0.00061491
0.000121491
0.000594922
0.00010227
0.000573631
8.67219e-05
0.000552227
7.45082e-05
0.000531712
6.4177e-05
0.000512656
5.56143e-05
0.000495358
4.81943e-05
0.000479811
4.19138e-05
0.000465921
3.67374e-05
0.000453521
3.22476e-05
0.000442426
2.85337e-05
0.000432475
2.54679e-05
0.000423538
2.28388e-05
0.000415468
2.06104e-05
0.000408142
1.87268e-05
0.000401477
1.70459e-05
0.000395385
1.56313e-05
0.000389794
1.43826e-05
0.00038464
1.33016e-05
0.00037988
1.23131e-05
0.000375465
1.14426e-05
0.000371355
1.07067e-05
0.000367524
1.00152e-05
0.000363938
9.41702e-06
0.00036058
8.8465e-06
0.000357422
8.35054e-06
0.000354446
7.89598e-06
0.000351637
7.48885e-06
0.000348982
7.10096e-06
0.000346466
6.75056e-06
0.000344079
6.43344e-06
0.000341807
6.14101e-06
0.000339645
5.8604e-06
0.000337582
5.6127e-06
0.000335613
5.3732e-06
0.000333731
5.15106e-06
0.000331927
4.95511e-06
0.000330199
4.75753e-06
0.00032854
4.58428e-06
0.000326947
4.40982e-06
0.000325415
4.25553e-06
0.00032394
4.10752e-06
0.000322519
3.97166e-06
0.000321149
3.83466e-06
0.000319826
3.71477e-06
0.000318549
3.5909e-06
0.000317315
3.48032e-06
0.00031612
3.37423e-06
0.000314964
3.27605e-06
0.000313845
3.17713e-06
0.000312759
3.08674e-06
0.000311707
2.99853e-06
0.000310686
2.91465e-06
0.000309695
2.83742e-06
0.000308732
2.76002e-06
0.000307795
2.68889e-06
0.000306885
2.618e-06
0.000305999
2.55241e-06
0.000305137
2.48803e-06
0.000304298
2.42587e-06
0.00030348
2.36917e-06
0.000302683
2.31125e-06
0.000301905
2.25814e-06
0.000301147
2.20387e-06
0.000300407
2.1546e-06
0.000299686
2.10488e-06
0.000298981
2.05823e-06
0.000298292
2.01289e-06
0.000297619
1.9705e-06
0.000296962
1.92748e-06
0.000296319
1.88714e-06
0.00029569
1.84728e-06
0.000295075
1.8091e-06
0.000294474
1.77198e-06
0.000293885
1.73543e-06
0.000293308
1.70179e-06
0.000292744
1.66776e-06
0.000292191
1.6361e-06
0.000291649
1.60351e-06
0.000291118
1.57389e-06
0.000290597
1.54299e-06
0.000290087
1.5149e-06
0.000289587
1.48599e-06
0.000289096
1.45922e-06
0.000288615
1.43232e-06
0.000288142
1.40732e-06
0.000287679
1.3815e-06
0.000287224
1.35797e-06
0.000286777
1.3332e-06
0.000286338
1.31106e-06
0.000285908
1.28751e-06
0.000285484
1.26631e-06
0.000285069
1.24423e-06
0.00028466
1.22376e-06
0.000284259
1.20315e-06
0.000283865
1.18378e-06
0.000283477
1.16391e-06
0.000283096
1.14544e-06
0.000282721
1.12641e-06
0.000282352
1.10884e-06
0.00028199
1.09085e-06
0.000281633
1.07386e-06
0.000281282
1.05705e-06
0.000280937
1.04036e-06
0.000280597
1.02479e-06
0.000280263
1.00872e-06
0.000279934
9.93785e-07
0.00027961
9.78322e-07
0.000279291
9.64118e-07
0.000278977
9.49227e-07
0.000278667
9.35675e-07
0.000278363
9.2137e-07
0.000278063
9.08227e-07
0.000277767
8.94709e-07
0.000277476
8.81937e-07
0.000277189
8.69161e-07
0.000276907
8.5701e-07
0.000276628
8.44589e-07
0.000276354
8.32909e-07
0.000276083
8.20898e-07
0.000275817
8.09716e-07
0.000275554
7.98171e-07
0.000275295
7.87372e-07
0.000275039
7.76352e-07
0.000274788
7.65805e-07
0.000274539
7.55394e-07
0.000274294
7.45061e-07
0.000274053
7.35248e-07
0.000273815
7.25235e-07
0.00027358
7.15766e-07
0.000273348
7.06042e-07
0.000273119
6.96953e-07
0.000272894
6.87513e-07
0.000272671
6.78774e-07
0.000272451
6.69636e-07
0.000272235
6.61187e-07
0.000272021
6.52396e-07
0.00027181
6.44156e-07
0.000271601
6.35767e-07
0.000271396
6.27731e-07
0.000271193
6.19707e-07
0.000270993
6.1198e-07
0.000270795
6.0416e-07
0.000270599
5.96693e-07
0.000270407
5.89089e-07
0.000270216
5.81909e-07
0.000270028
5.74509e-07
0.000269843
5.67549e-07
0.00026966
5.60426e-07
0.000269479
5.53663e-07
0.0002693
5.46798e-07
0.000269123
5.4017e-07
0.000268949
5.33659e-07
0.000268777
5.27171e-07
0.000268607
5.20921e-07
0.000268439
5.14618e-07
0.000268272
5.08586e-07
0.000268108
5.02463e-07
0.000267946
4.96626e-07
0.000267786
4.9063e-07
0.000267628
4.84964e-07
0.000267471
4.79132e-07
0.000267317
4.7368e-07
0.000267164
4.6803e-07
0.000267013
4.62786e-07
0.000266864
4.57336e-07
0.000266716
4.52299e-07
0.00026657
4.47033e-07
0.000266426
4.42194e-07
0.000266283
4.3705e-07
0.000266142
4.32641e-07
0.000266003
4.27801e-07
0.000265864
4.23833e-07
0.000265728
4.19173e-07
0.000265592
4.15537e-07
0.000265459
4.11131e-07
0.000265326
4.07826e-07
0.000265194
4.03806e-07
0.000265064
4.00875e-07
0.000264935
3.97603e-07
0.000264806
3.94734e-07
0.000264679
3.92565e-07
0.000264552
3.88983e-07
0.000264426
3.89045e-07
0.000264301
3.835e-07
0.000264176
3.88724e-07
0.000264052
3.77712e-07
0.000263927
3.9414e-07
0.000263804
3.70877e-07
0.000263677
4.05833e-07
0.000263554
3.66813e-07
0.000263423
4.20638e-07
0.000263296
3.79434e-07
0.000263163
4.34463e-07
0.000263029
3.76705e-07
7.44521e-07
0.000662835
0.000195873
0.000676972
0.000226173
0.000678735
0.000177502
0.000676807
0.000146861
0.000670868
0.000127431
0.000661395
0.000111742
0.000649244
9.88736e-05
0.000634969
8.87826e-05
0.00061928
7.98667e-05
0.000602797
7.20969e-05
0.000586244
6.47477e-05
0.000570136
5.80209e-05
0.00055485
5.20239e-05
0.000540604
4.64933e-05
0.000527446
4.16921e-05
0.000515358
3.75562e-05
0.00050431
3.38862e-05
0.000494208
3.07123e-05
0.000484951
2.7984e-05
0.000476472
2.55254e-05
0.000468685
2.34176e-05
0.000461511
2.15563e-05
0.000454884
1.99291e-05
0.00044875
1.84473e-05
0.000443059
1.71335e-05
0.00043776
1.60059e-05
0.000432819
1.49563e-05
0.000428196
1.40394e-05
0.00042387
1.31731e-05
0.000419804
1.24161e-05
0.000415977
1.17234e-05
0.000412367
1.10981e-05
0.000408959
1.05093e-05
0.000405734
9.97582e-06
0.000402677
9.49039e-06
0.000399772
9.04598e-06
0.000397009
8.62312e-06
0.000394378
8.24434e-06
0.000391869
7.882e-06
0.000389473
7.5464e-06
0.000387181
7.24738e-06
0.000384989
6.94997e-06
0.000382886
6.68676e-06
0.00038087
6.42639e-06
0.000378933
6.19255e-06
0.000377071
5.96936e-06
0.000375278
5.76402e-06
0.000373553
5.56013e-06
0.000371889
5.3787e-06
0.000370285
5.19515e-06
0.000368735
5.02966e-06
0.000367239
4.8712e-06
0.000365791
4.72381e-06
0.00036439
4.57757e-06
0.000363034
4.44282e-06
0.000361721
4.31213e-06
0.000360448
4.1876e-06
0.000359213
4.07257e-06
0.000358014
3.95865e-06
0.00035685
3.85316e-06
0.000355719
3.74885e-06
0.000354619
3.65177e-06
0.00035355
3.5571e-06
0.000352511
3.46568e-06
0.000351498
3.38171e-06
0.000350512
3.29711e-06
0.000349551
3.21884e-06
0.000348615
3.13987e-06
0.000347703
3.06737e-06
0.000346813
2.99495e-06
0.000345944
2.92663e-06
0.000345097
2.86045e-06
0.000344269
2.79834e-06
0.00034346
2.73588e-06
0.00034267
2.67707e-06
0.000341899
2.6192e-06
0.000341144
2.5637e-06
0.000340406
2.50988e-06
0.000339685
2.45698e-06
0.000338978
2.40794e-06
0.000338287
2.35886e-06
0.000337611
2.31282e-06
0.000336948
2.26596e-06
0.000336299
2.22287e-06
0.000335664
2.17859e-06
0.000335041
2.13781e-06
0.00033443
2.09641e-06
0.000333832
2.05761e-06
0.000333245
2.01905e-06
0.00033267
1.98286e-06
0.000332105
1.94598e-06
0.000331551
1.91191e-06
0.000331008
1.87663e-06
0.000330474
1.84459e-06
0.000329951
1.81107e-06
0.000329436
1.7805e-06
0.000328932
1.74903e-06
0.000328436
1.71958e-06
0.000327949
1.6902e-06
0.00032747
1.6624e-06
0.000327
1.63411e-06
0.000326538
1.60763e-06
0.000326084
1.58062e-06
0.000325637
1.55545e-06
0.000325198
1.52988e-06
0.000324766
1.50562e-06
0.000324341
1.48167e-06
0.000323924
1.45797e-06
0.000323513
1.43569e-06
0.000323109
1.41295e-06
0.000322711
1.39161e-06
0.000322319
1.36976e-06
0.000321934
1.34946e-06
0.000321555
1.32846e-06
0.000321181
1.30909e-06
0.000320814
1.28893e-06
0.000320452
1.2702e-06
0.000320096
1.25113e-06
0.000319745
1.23297e-06
0.000319399
1.21492e-06
0.000319058
1.19766e-06
0.000318723
1.18014e-06
0.000318392
1.16357e-06
0.000318066
1.14666e-06
0.000317745
1.1308e-06
0.000317429
1.11455e-06
0.000317117
1.09925e-06
0.000316809
1.08373e-06
0.000316506
1.06883e-06
0.000316208
1.05414e-06
0.000315913
1.03959e-06
0.000315623
1.0257e-06
0.000315336
1.01163e-06
0.000315054
9.98243e-07
0.000314775
9.84606e-07
0.0003145
9.7175e-07
0.000314229
9.5853e-07
0.000313962
9.46168e-07
0.000313698
9.33385e-07
0.000313438
9.21441e-07
0.000313181
9.09144e-07
0.000312928
8.97518e-07
0.000312678
8.85766e-07
0.000312431
8.74453e-07
0.000312188
8.63202e-07
0.000311947
8.52328e-07
0.00031171
8.41381e-07
0.000311476
8.30877e-07
0.000311245
8.20245e-07
0.000311017
8.1014e-07
0.000310791
7.99808e-07
0.000310569
7.90019e-07
0.000310349
7.80065e-07
0.000310132
7.70567e-07
0.000309918
7.60979e-07
0.000309707
7.51687e-07
0.000309498
7.42563e-07
0.000309291
7.33491e-07
0.000309087
7.24732e-07
0.000308886
7.15935e-07
0.000308687
7.07478e-07
0.000308491
6.9893e-07
0.000308297
6.90754e-07
0.000308105
6.82411e-07
0.000307915
6.74486e-07
0.000307728
6.66366e-07
0.000307543
6.58742e-07
0.00030736
6.50873e-07
0.000307179
6.43542e-07
0.000307001
6.35934e-07
0.000306824
6.2891e-07
0.00030665
6.21549e-07
0.000306477
6.14839e-07
0.000306307
6.07631e-07
0.000306138
6.01499e-07
0.000305971
5.94617e-07
0.000305806
5.89121e-07
0.000305642
5.82441e-07
0.00030548
5.77511e-07
0.00030532
5.71064e-07
0.000305161
5.66738e-07
0.000305005
5.60626e-07
0.000304849
5.57009e-07
0.000304695
5.51584e-07
0.000304541
5.48433e-07
0.000304389
5.44077e-07
0.000304238
5.40601e-07
0.000304088
5.38535e-07
0.000303938
5.33316e-07
0.00030379
5.3687e-07
0.000303642
5.26061e-07
0.000303494
5.41944e-07
0.000303347
5.18282e-07
0.000303198
5.54794e-07
0.00030305
5.14113e-07
0.000302898
5.73528e-07
0.000302746
5.30554e-07
0.00030259
5.90498e-07
0.000302431
5.35864e-07
9.28465e-07
0.000692313
0.000176308
0.000707614
0.000210872
0.000712069
0.000173048
0.000712614
0.000146316
0.000711315
0.000128729
0.000708069
0.000114989
0.000702731
0.000104212
0.000695578
9.59357e-05
0.000686728
8.87169e-05
0.000676225
8.25996e-05
0.000664366
7.6607e-05
0.000651498
7.08886e-05
0.000638043
6.54788e-05
0.000624464
6.00721e-05
0.000611106
5.50505e-05
0.000598214
5.04474e-05
0.000585977
4.61236e-05
0.000574465
4.22239e-05
0.00056369
3.87593e-05
0.000553655
3.55603e-05
0.000544327
3.27461e-05
0.000535653
3.02304e-05
0.000527582
2.80001e-05
0.000520069
2.59597e-05
0.000513073
2.41301e-05
0.000506538
2.25401e-05
0.00050043
2.10652e-05
0.000494705
1.97638e-05
0.000489339
1.85398e-05
0.000484293
1.74619e-05
0.000479542
1.64742e-05
0.00047506
1.55802e-05
0.000470827
1.47423e-05
0.000466822
1.39807e-05
0.000463027
1.32854e-05
0.000459423