/*--------------------------------*- C++ -*----------------------------------*\
  =========                 |
  \\      /  F ield         | OpenFOAM: The Open Source CFD Toolbox
   \\    /   O peration     | Website:  https://openfoam.org
    \\  /    A nd           | Version:  12
     \\/     M anipulation  |
\*---------------------------------------------------------------------------*/
FoamFile
{
    format      ascii;
    class       volScalarField;
    location    "500";
    object      epsilon;
}
// * * * * * * * * * * * * * * * * * * * * * * * * * * * * * * * * * * * * * //

dimensions      [0 2 -3 0 0 0 0];

internalField   nonuniform List<scalar> 
20000
(
0.0755144
0.0283662
0.031421
0.041933
0.0488318
0.0543298
0.0597782
0.0655483
0.0703363
0.0747463
0.0777092
0.0809294
0.0829942
0.0850567
0.08681
0.0884145
0.0896353
0.0906938
0.091535
0.0922997
0.0928738
0.0933561
0.0937347
0.0940363
0.0942895
0.0944548
0.0945755
0.0946487
0.0946683
0.0946582
0.094627
0.0945594
0.0944645
0.0943557
0.0942241
0.0940793
0.0939278
0.0937626
0.0935811
0.0933991
0.093204
0.0930076
0.0928029
0.0925954
0.0923857
0.0921724
0.0919547
0.0917382
0.0915175
0.0912994
0.0910792
0.0908613
0.0906401
0.0904213
0.0902038
0.0899873
0.0897714
0.0895568
0.0893442
0.089133
0.0889233
0.0887154
0.0885089
0.0883051
0.0881018
0.0879019
0.0877033
0.0875075
0.0873132
0.0871213
0.0869313
0.0867436
0.0865579
0.0863743
0.0861931
0.0860139
0.0858368
0.085662
0.0854893
0.0853185
0.0851503
0.0849838
0.0848195
0.0846572
0.0844969
0.0843387
0.0841824
0.0840283
0.0838759
0.0837256
0.0835771
0.0834306
0.0832858
0.0831429
0.0830019
0.0828626
0.0827251
0.0825893
0.0824555
0.0823231
0.0821926
0.0820636
0.0819364
0.0818107
0.0816867
0.0815643
0.0814432
0.081324
0.081206
0.0810898
0.0809748
0.0808615
0.0807494
0.0806389
0.0805296
0.0804219
0.0803154
0.0802104
0.0801065
0.0800042
0.0799029
0.079803
0.0797043
0.0796069
0.0795106
0.0794156
0.0793217
0.079229
0.0791375
0.079047
0.0789578
0.0788695
0.0787824
0.0786963
0.0786114
0.0785273
0.0784444
0.0783624
0.0782815
0.0782015
0.0781225
0.0780444
0.0779674
0.0778911
0.0778159
0.0777415
0.077668
0.0775953
0.0775236
0.0774525
0.0773823
0.0773127
0.077244
0.0771759
0.0771086
0.0770419
0.0769759
0.0769106
0.076846
0.076782
0.0767189
0.0766564
0.0765947
0.0765336
0.0764736
0.076414
0.0763555
0.0762974
0.0762403
0.0761836
0.0761278
0.0760725
0.0760177
0.0759639
0.07591
0.0758569
0.0758037
0.0757509
0.0756975
0.0756451
0.0755925
0.0755402
0.0754874
0.0754341
0.0753813
0.0753269
0.0752748
0.0752186
0.0751687
0.0751096
0.0750629
0.074998
0.0749567
0.0748833
0.0748469
0.0747681
0.0747315
0.0746512
0.0746197
0.0745036
0.0279445
0.0395262
0.0599302
0.077308
0.0831682
0.0856053
0.0875857
0.0899496
0.091292
0.0923834
0.092275
0.0924478
0.0920233
0.0916031
0.0911229
0.0906841
0.0900716
0.0894555
0.0887742
0.0881362
0.0874463
0.086768
0.0860869
0.085413
0.084768
0.0841149
0.0834773
0.0828527
0.0822314
0.0816279
0.0810431
0.0804667
0.0798997
0.0793513
0.078812
0.0782874
0.0777782
0.077282
0.0767917
0.0763196
0.0758543
0.0754033
0.0749609
0.0745298
0.0741097
0.0736993
0.0732965
0.072905
0.0725204
0.0721466
0.0717803
0.0714238
0.0710729
0.0707307
0.0703966
0.0700695
0.0697494
0.0694362
0.0691298
0.0688299
0.068536
0.0682484
0.0679662
0.0676906
0.0674194
0.0671545
0.0668945
0.0666401
0.0663902
0.0661454
0.0659052
0.0656697
0.0654385
0.0652117
0.0649892
0.0647707
0.0645563
0.0643459
0.0641393
0.0639363
0.0637372
0.0635414
0.0633491
0.0631602
0.0629745
0.0627922
0.0626128
0.0624367
0.0622634
0.0620931
0.0619256
0.0617609
0.0615989
0.0614395
0.0612828
0.0611286
0.0609769
0.0608275
0.0606807
0.0605361
0.0603939
0.0602538
0.0601159
0.0599802
0.0598465
0.059715
0.0595853
0.0594578
0.059332
0.0592083
0.0590862
0.0589662
0.0588477
0.0587312
0.0586162
0.0585031
0.0583915
0.0582816
0.0581732
0.0580664
0.0579611
0.0578574
0.057755
0.0576542
0.0575547
0.0574567
0.05736
0.0572646
0.0571707
0.0570779
0.0569865
0.0568962
0.0568073
0.0567194
0.0566329
0.0565474
0.0564631
0.0563799
0.0562978
0.0562168
0.0561369
0.0560579
0.0559801
0.0559032
0.0558274
0.0557525
0.0556786
0.0556055
0.0555335
0.0554623
0.055392
0.0553225
0.0552539
0.055186
0.055119
0.0550527
0.0549872
0.0549224
0.0548583
0.0547949
0.0547324
0.0546704
0.0546092
0.0545486
0.0544889
0.0544296
0.0543713
0.0543132
0.0542561
0.0541992
0.0541433
0.0540876
0.0540325
0.0539781
0.0539239
0.0538702
0.0538169
0.0537637
0.0537107
0.0536578
0.0536058
0.0535532
0.0535017
0.0534486
0.0533979
0.053344
0.0532945
0.0532393
0.0531921
0.0531346
0.0530905
0.0530289
0.0529893
0.0529219
0.0528859
0.0528149
0.0527789
0.0527057
0.0526731
0.0525806
0.00616108
0.0183348
0.0321131
0.0491496
0.0621093
0.0722327
0.0795331
0.085059
0.0882614
0.090294
0.0907671
0.0909275
0.090538
0.0898489
0.0890147
0.0881595
0.0871687
0.0861453
0.0850857
0.0840694
0.0830407
0.0820378
0.0810565
0.0801026
0.0791915
0.0783002
0.077438
0.076608
0.0757999
0.0750236
0.074277
0.0735542
0.0728533
0.07218
0.071527
0.0708981
0.0702907
0.0697049
0.0691335
0.0685848
0.0680508
0.0675352
0.0670346
0.0665493
0.0660792
0.0656228
0.0651788
0.0647485
0.0643293
0.0639229
0.0635273
0.0631434
0.0627684
0.0624037
0.0620491
0.0617036
0.0613666
0.0610383
0.0607182
0.0604061
0.0601013
0.059804
0.0595134
0.05923
0.0589526
0.058682
0.0584174
0.0581589
0.0579059
0.0576585
0.0574164
0.0571797
0.0569479
0.0567209
0.0564987
0.056281
0.0560678
0.0558589
0.0556542
0.0554535
0.055257
0.0550641
0.054875
0.0546895
0.0545074
0.0543289
0.0541536
0.0539817
0.0538128
0.0536471
0.0534843
0.0533245
0.0531675
0.0530132
0.0528617
0.0527127
0.0525664
0.0524225
0.0522812
0.0521422
0.0520055
0.0518712
0.051739
0.051609
0.0514811
0.0513554
0.0512316
0.0511099
0.05099
0.0508721
0.050756
0.0506418
0.0505293
0.0504186
0.0503096
0.0502022
0.0500965
0.0499924
0.0498899
0.0497889
0.0496894
0.0495914
0.0494948
0.0493997
0.0493059
0.0492135
0.0491225
0.0490327
0.0489443
0.0488571
0.0487712
0.0486864
0.0486029
0.0485205
0.0484393
0.0483591
0.0482802
0.0482022
0.0481254
0.0480495
0.0479748
0.047901
0.0478282
0.0477564
0.0476856
0.0476156
0.0475467
0.0474786
0.0474114
0.047345
0.0472796
0.0472149
0.047151
0.0470879
0.0470256
0.046964
0.0469031
0.0468429
0.0467834
0.0467246
0.0466665
0.0466089
0.0465522
0.0464959
0.0464404
0.0463853
0.0463311
0.0462772
0.0462241
0.0461713
0.0461194
0.0460677
0.0460166
0.0459662
0.0459161
0.0458664
0.0458172
0.0457682
0.0457196
0.0456712
0.0456236
0.0455757
0.0455288
0.0454809
0.0454348
0.0453867
0.0453418
0.0452931
0.0452501
0.0452002
0.0451597
0.0451072
0.0450701
0.0450139
0.0449801
0.0449209
0.0448875
0.0448277
0.0447954
0.0447261
0.00171954
0.00660893
0.0120996
0.0206252
0.0298573
0.0397314
0.0490319
0.0575147
0.0640666
0.0691472
0.0723513
0.0746173
0.0758935
0.0765458
0.0766998
0.0765944
0.0762309
0.0756575
0.0749629
0.0742226
0.0734317
0.0726098
0.0717784
0.0709454
0.07013
0.0693238
0.0685305
0.0677594
0.067004
0.066273
0.0655653
0.064879
0.064212
0.063569
0.0629449
0.0623433
0.0617611
0.0611994
0.0606526
0.0601264
0.0596153
0.0591214
0.058643
0.0581789
0.0577299
0.0572944
0.0568716
0.0564617
0.0560634
0.0556772
0.055302
0.0549379
0.0545832
0.0542384
0.0539034
0.0535774
0.0532598
0.0529509
0.0526499
0.0523568
0.0520708
0.0517923
0.0515203
0.0512552
0.0509962
0.0507437
0.050497
0.0502562
0.0500209
0.049791
0.0495662
0.0493465
0.0491317
0.0489215
0.0487159
0.0485147
0.0483177
0.048125
0.0479362
0.0477513
0.0475702
0.0473928
0.0472189
0.0470485
0.0468813
0.0467175
0.0465568
0.0463992
0.0462446
0.046093
0.0459441
0.045798
0.0456546
0.0455138
0.0453755
0.0452397
0.0451063
0.0449753
0.0448466
0.0447201
0.0445958
0.0444737
0.0443536
0.0442356
0.0441195
0.0440054
0.0438931
0.0437827
0.0436741
0.0435673
0.0434622
0.0433588
0.0432571
0.0431569
0.0430584
0.0429613
0.0428658
0.0427718
0.0426792
0.0425881
0.0424983
0.04241
0.0423229
0.0422371
0.0421527
0.0420694
0.0419874
0.0419066
0.041827
0.0417486
0.0416713
0.041595
0.0415199
0.0414459
0.0413729
0.0413009
0.04123
0.04116
0.0410911
0.041023
0.0409559
0.0408898
0.0408245
0.0407602
0.0406967
0.0406341
0.0405723
0.0405113
0.0404512
0.0403918
0.0403332
0.0402754
0.0402183
0.0401619
0.0401061
0.0400511
0.0399967
0.0399429
0.0398898
0.0398373
0.0397854
0.0397341
0.0396834
0.0396333
0.0395838
0.0395348
0.0394865
0.0394387
0.0393915
0.0393447
0.0392985
0.0392528
0.0392076
0.0391631
0.0391188
0.0390751
0.0390318
0.0389889
0.0389462
0.0389039
0.0388622
0.0388206
0.0387796
0.0387383
0.038698
0.0386568
0.0386175
0.0385762
0.0385384
0.0384967
0.0384608
0.0384176
0.0383843
0.0383385
0.0383081
0.03826
0.0382305
0.0381821
0.0381539
0.038099
0.000874539
0.00258678
0.00465717
0.00794263
0.0121173
0.0172692
0.0230041
0.0295122
0.0359495
0.0423003
0.0476633
0.0521852
0.0556591
0.0582513
0.0600764
0.0613603
0.0621549
0.062584
0.0627136
0.0626597
0.0624683
0.0621284
0.0617138
0.0612334
0.0607225
0.0601847
0.0596205
0.0590502
0.058473
0.0578989
0.057332
0.0567718
0.0562191
0.0556791
0.0551494
0.0546338
0.0541308
0.0536422
0.0531641
0.0527009
0.0522497
0.0518114
0.0513857
0.0509714
0.0505697
0.0501788
0.049799
0.04943
0.049071
0.0487223
0.0483831
0.0480536
0.0477325
0.0474201
0.0471164
0.0468206
0.0465324
0.0462519
0.0459785
0.0457122
0.0454524
0.0451992
0.044952
0.0447111
0.0444757
0.0442462
0.0440221
0.0438032
0.0435894
0.0433805
0.0431763
0.0429767
0.0427816
0.0425907
0.0424041
0.0422214
0.0420427
0.0418678
0.0416965
0.0415288
0.0413646
0.0412037
0.0410461
0.0408917
0.0407403
0.0405919
0.0404464
0.0403037
0.0401638
0.0400265
0.0398918
0.0397597
0.03963
0.0395027
0.0393777
0.039255
0.0391344
0.0390161
0.0388999
0.0387857
0.0386735
0.0385633
0.0384549
0.0383484
0.0382437
0.0381408
0.0380396
0.0379401
0.0378423
0.037746
0.0376513
0.0375582
0.0374666
0.0373764
0.0372877
0.0372004
0.0371144
0.0370299
0.0369466
0.0368646
0.0367839
0.0367044
0.0366262
0.0365491
0.0364732
0.0363984
0.0363247
0.0362521
0.0361807
0.0361102
0.0360408
0.0359724
0.035905
0.0358385
0.035773
0.0357085
0.0356449
0.0355821
0.0355203
0.0354593
0.0353992
0.0353399
0.0352815
0.0352238
0.035167
0.0351109
0.0350556
0.035001
0.0349472
0.0348941
0.0348416
0.0347899
0.0347388
0.0346883
0.0346385
0.0345892
0.0345406
0.0344926
0.0344451
0.0343982
0.0343519
0.0343061
0.034261
0.0342163
0.0341723
0.0341287
0.0340858
0.0340433
0.0340015
0.0339601
0.0339193
0.0338789
0.033839
0.0337998
0.0337609
0.0337225
0.0336844
0.0336469
0.0336094
0.0335725
0.033536
0.0334999
0.033464
0.0334283
0.033393
0.0333577
0.0333232
0.0332881
0.0332547
0.0332196
0.0331877
0.0331517
0.0331219
0.0330841
0.0330568
0.0330171
0.0329912
0.0329509
0.032927
0.0328815
0.00065667
0.00132176
0.00216786
0.00342215
0.00503516
0.00723232
0.00981292
0.0131025
0.0168129
0.0211513
0.0256765
0.0302673
0.0345651
0.03839
0.0416071
0.0442726
0.0463757
0.0480012
0.0492018
0.050074
0.0506752
0.0510447
0.0512414
0.0512811
0.0512333
0.0511017
0.050885
0.0506235
0.0503193
0.0499866
0.0496382
0.049271
0.048892
0.0485088
0.0481212
0.0477342
0.0473495
0.0469687
0.0465904
0.0462185
0.0458524
0.0454925
0.0451401
0.0447943
0.0444566
0.0441259
0.0438027
0.043487
0.0431785
0.0428775
0.0425837
0.0422972
0.0420173
0.0417442
0.0414778
0.0412179
0.0409641
0.0407166
0.0404749
0.0402391
0.0400087
0.0397838
0.0395641
0.0393496
0.0391399
0.0389352
0.0387351
0.0385395
0.0383484
0.0381614
0.0379786
0.0377998
0.0376249
0.0374537
0.0372862
0.0371223
0.0369618
0.0368047
0.0366507
0.0365
0.0363523
0.0362077
0.0360659
0.0359269
0.0357906
0.0356571
0.0355261
0.0353976
0.0352716
0.035148
0.0350267
0.0349076
0.0347908
0.0346761
0.0345635
0.0344529
0.0343443
0.0342377
0.0341329
0.03403
0.0339289
0.0338295
0.0337319
0.0336359
0.0335416
0.0334488
0.0333576
0.0332679
0.0331797
0.033093
0.0330077
0.0329237
0.0328411
0.0327599
0.0326799
0.0326012
0.0325238
0.0324476
0.0323725
0.0322987
0.0322259
0.0321543
0.0320838
0.0320144
0.031946
0.0318786
0.0318122
0.0317469
0.0316825
0.031619
0.0315565
0.0314949
0.0314342
0.0313743
0.0313154
0.0312572
0.0312
0.0311435
0.0310878
0.0310329
0.0309788
0.0309255
0.0308729
0.030821
0.0307699
0.0307195
0.0306697
0.0306206
0.0305722
0.0305244
0.0304773
0.0304307
0.0303847
0.0303394
0.0302946
0.0302503
0.0302066
0.0301634
0.0301208
0.0300787
0.0300372
0.0299962
0.0299557
0.0299157
0.0298763
0.0298374
0.0297992
0.0297613
0.0297241
0.0296873
0.029651
0.0296152
0.0295799
0.0295452
0.0295108
0.0294769
0.0294433
0.0294102
0.0293772
0.0293449
0.0293126
0.0292811
0.0292494
0.0292183
0.0291871
0.0291565
0.0291259
0.0290957
0.0290661
0.029036
0.0290077
0.028977
0.0289504
0.0289184
0.0288938
0.0288604
0.0288376
0.0288032
0.0287829
0.0287439
0.000586349
0.000878573
0.00127393
0.0018186
0.00247075
0.00336932
0.0044225
0.00582726
0.00748526
0.00959063
0.0120582
0.0149213
0.0180662
0.0213705
0.0246295
0.0277376
0.0305523
0.0330276
0.0351272
0.0368803
0.0383082
0.0394474
0.0403407
0.0410165
0.0415211
0.0418838
0.0421167
0.042253
0.0423007
0.0422837
0.0422233
0.0421071
0.0419559
0.0417786
0.0415765
0.0413579
0.0411283
0.0408869
0.0406369
0.0403822
0.0401248
0.0398641
0.0396043
0.0393445
0.0390864
0.0388299
0.0385761
0.0383253
0.0380777
0.0378339
0.0375941
0.0373585
0.0371268
0.0368992
0.036676
0.0364572
0.0362424
0.0360322
0.035826
0.0356242
0.0354263
0.0352325
0.0350427
0.0348568
0.0346748
0.0344965
0.0343219
0.034151
0.0339836
0.0338196
0.0336589
0.0335015
0.0333474
0.0331963
0.0330483
0.0329033
0.0327611
0.0326218
0.0324852
0.0323513
0.03222
0.0320913
0.031965
0.0318412
0.0317196
0.0316004
0.0314835
0.0313687
0.031256
0.0311455
0.0310369
0.0309303
0.0308257
0.0307229
0.0306219
0.0305228
0.0304253
0.0303296
0.0302356
0.0301432
0.0300523
0.0299631
0.0298753
0.029789
0.0297041
0.0296207
0.0295387
0.029458
0.0293786
0.0293005
0.0292237
0.0291481
0.0290737
0.0290005
0.0289285
0.0288576
0.0287878
0.028719
0.0286514
0.0285848
0.0285192
0.0284546
0.028391
0.0283284
0.0282667
0.0282059
0.028146
0.028087
0.0280289
0.0279716
0.0279152
0.0278596
0.0278048
0.0277508
0.0276975
0.0276451
0.0275934
0.0275424
0.0274921
0.0274426
0.0273937
0.0273456
0.0272981
0.0272513
0.0272051
0.0271596
0.0271146
0.0270703
0.0270266
0.0269835
0.0269409
0.0268988
0.0268573
0.0268163
0.0267759
0.0267359
0.0266965
0.0266575
0.0266191
0.0265811
0.0265437
0.0265067
0.0264703
0.0264344
0.0263991
0.0263642
0.0263299
0.026296
0.0262627
0.0262298
0.0261975
0.0261656
0.0261342
0.0261034
0.0260727
0.0260427
0.0260129
0.0259836
0.0259542
0.0259256
0.025897
0.0258692
0.0258411
0.0258137
0.0257859
0.0257591
0.0257318
0.0257054
0.025679
0.0256528
0.0256274
0.025601
0.025577
0.0255495
0.0255273
0.0254985
0.0254783
0.0254483
0.025431
0.0253969
0.000560628
0.000698463
0.000903833
0.0011764
0.00147851
0.00188132
0.00233222
0.00292359
0.00361881
0.00451242
0.00559989
0.00694966
0.00856481
0.0104647
0.0125943
0.0149169
0.0173263
0.0197381
0.0220476
0.0241961
0.0261332
0.0278413
0.029319
0.0305748
0.0316282
0.0325041
0.0332157
0.0337907
0.0342418
0.0345901
0.0348548
0.0350421
0.0351643
0.0352354
0.0352569
0.0352443
0.0352046
0.0351324
0.0350391
0.0349275
0.0348027
0.0346623
0.0345153
0.03436
0.0341977
0.0340305
0.0338596
0.0336864
0.033511
0.0333348
0.0331586
0.0329826
0.0328068
0.0326321
0.0324586
0.0322869
0.0321167
0.0319486
0.0317826
0.0316188
0.0314572
0.031298
0.0311411
0.0309867
0.0308348
0.0306854
0.0305384
0.030394
0.030252
0.0301124
0.0299753
0.0298406
0.0297082
0.0295782
0.0294505
0.0293251
0.0292019
0.029081
0.0289621
0.0288454
0.0287308
0.0286182
0.0285076
0.028399
0.0282922
0.0281874
0.0280844
0.0279832
0.0278838
0.0277861
0.0276901
0.0275957
0.0275029
0.0274118
0.0273222
0.0272341
0.0271474
0.0270623
0.0269785
0.0268962
0.0268152
0.0267355
0.0266572
0.0265801
0.0265043
0.0264297
0.0263563
0.026284
0.0262129
0.026143
0.0260741
0.0260063
0.0259396
0.0258739
0.0258092
0.0257455
0.0256828
0.0256211
0.0255603
0.0255004
0.0254414
0.0253832
0.025326
0.0252696
0.025214
0.0251593
0.0251053
0.0250521
0.0249997
0.0249481
0.0248972
0.024847
0.0247976
0.0247489
0.0247008
0.0246534
0.0246067
0.0245607
0.0245153
0.0244706
0.0244265
0.024383
0.02434
0.0242977
0.024256
0.0242149
0.0241742
0.0241342
0.0240946
0.0240556
0.0240171
0.0239791
0.0239415
0.0239044
0.0238678
0.0238316
0.023796
0.0237607
0.023726
0.0236917
0.0236579
0.0236245
0.0235917
0.0235594
0.0235275
0.0234961
0.0234653
0.0234349
0.023405
0.0233756
0.0233467
0.0233182
0.0232901
0.0232626
0.0232353
0.0232085
0.0231819
0.0231558
0.0231296
0.0231042
0.0230787
0.023054
0.0230288
0.0230046
0.0229797
0.0229559
0.0229315
0.0229082
0.0228844
0.0228614
0.0228386
0.0228153
0.0227937
0.0227696
0.0227495
0.0227243
0.0227063
0.0226796
0.0226646
0.0226344
0.000550227
0.000617996
0.000729585
0.000880118
0.00103897
0.00124312
0.00146184
0.00173461
0.00204521
0.00243025
0.00289183
0.00346877
0.00417084
0.00504136
0.00608477
0.0073243
0.00874634
0.010339
0.0120544
0.0138439
0.0156444
0.0174017
0.0190682
0.0206117
0.0220118
0.023266
0.0243683
0.0253313
0.0261593
0.0268676
0.0274676
0.0279711
0.0283872
0.0287295
0.0290041
0.0292221
0.0293922
0.0295177
0.0296055
0.0296604
0.0296897
0.0296891
0.0296757
0.0296426
0.0295921
0.0295295
0.0294558
0.0293735
0.029282
0.0291849
0.029083
0.028976
0.0288651
0.0287513
0.0286352
0.0285176
0.0283982
0.0282782
0.0281579
0.0280373
0.0279166
0.0277963
0.0276764
0.0275571
0.0274387
0.0273211
0.0272047
0.0270894
0.0269753
0.0268624
0.0267508
0.0266406
0.0265319
0.0264245
0.0263185
0.026214
0.026111
0.0260095
0.0259093
0.0258107
0.0257136
0.0256179
0.0255236
0.0254308
0.0253393
0.0252493
0.0251607
0.0250734
0.0249875
0.0249029
0.0248196
0.0247376
0.0246569
0.0245775
0.0244992
0.0244222
0.0243464
0.0242717
0.0241982
0.0241259
0.0240546
0.0239845
0.0239154
0.0238474
0.0237804
0.0237144
0.0236494
0.0235855
0.0235224
0.0234604
0.0233992
0.023339
0.0232796
0.0232212
0.0231636
0.0231068
0.0230509
0.0229958
0.0229415
0.022888
0.0228353
0.0227833
0.0227321
0.0226816
0.0226318
0.0225828
0.0225344
0.0224867
0.0224397
0.0223934
0.0223476
0.0223026
0.0222581
0.0222143
0.0221711
0.0221285
0.0220865
0.0220451
0.0220042
0.0219639
0.0219241
0.021885
0.0218463
0.0218081
0.0217705
0.0217334
0.0216967
0.0216606
0.0216249
0.0215896
0.0215548
0.0215205
0.0214865
0.021453
0.0214199
0.0213872
0.0213549
0.0213231
0.0212917
0.0212607
0.0212302
0.0212001
0.0211705
0.0211413
0.0211127
0.0210844
0.0210567
0.0210294
0.0210026
0.0209763
0.0209503
0.0209248
0.0208997
0.0208751
0.0208507
0.0208268
0.020803
0.0207797
0.0207563
0.0207336
0.0207107
0.0206886
0.0206661
0.0206445
0.0206222
0.0206009
0.020579
0.0205581
0.0205367
0.0205162
0.0204956
0.020475
0.0204554
0.0204341
0.0204159
0.0203935
0.0203773
0.0203534
0.0203402
0.0203132
0.000545458
0.000580001
0.00064066
0.000727496
0.000818371
0.000932091
0.00105123
0.00119269
0.00134835
0.00153178
0.00174363
0.00199903
0.00230285
0.00267774
0.00313079
0.00368641
0.00435524
0.00515343
0.00608373
0.00714597
0.0083244
0.00959706
0.0109302
0.012289
0.0136342
0.0149406
0.016177
0.0173323
0.0183911
0.0193536
0.0202174
0.0209874
0.0216664
0.022263
0.0227822
0.0232322
0.0236197
0.0239508
0.0242314
0.0244662
0.0246632
0.0248215
0.0249515
0.0250538
0.0251309
0.0251867
0.0252232
0.0252442
0.0252479
0.0252416
0.0252248
0.0251962
0.0251594
0.0251153
0.0250645
0.0250086
0.0249471
0.0248819
0.0248136
0.0247419
0.0246674
0.0245909
0.0245127
0.0244328
0.0243521
0.0242702
0.0241877
0.0241049
0.0240217
0.0239384
0.0238551
0.0237719
0.023689
0.0236063
0.0235242
0.0234425
0.0233613
0.0232808
0.0232009
0.0231218
0.0230434
0.0229658
0.022889
0.022813
0.0227378
0.0226634
0.02259
0.0225174
0.0224456
0.0223748
0.0223049
0.0222358
0.0221676
0.0221003
0.0220338
0.0219683
0.0219036
0.0218397
0.0217767
0.0217146
0.0216533
0.0215928
0.0215332
0.0214744
0.0214163
0.0213591
0.0213026
0.0212469
0.021192
0.0211378
0.0210844
0.0210317
0.0209797
0.0209284
0.0208779
0.020828
0.0207788
0.0207303
0.0206824
0.0206352
0.0205886
0.0205427
0.0204974
0.0204527
0.0204085
0.020365
0.0203221
0.0202798
0.020238
0.0201967
0.0201561
0.0201159
0.0200763
0.0200373
0.0199987
0.0199607
0.0199232
0.0198861
0.0198496
0.0198135
0.019778
0.0197429
0.0197082
0.019674
0.0196403
0.019607
0.0195741
0.0195416
0.0195096
0.0194779
0.0194466
0.0194157
0.0193851
0.019355
0.0193252
0.0192958
0.0192667
0.019238
0.0192097
0.0191819
0.0191544
0.0191273
0.0191007
0.0190745
0.0190487
0.0190234
0.0189985
0.0189741
0.0189501
0.0189265
0.0189032
0.0188805
0.018858
0.018836
0.0188142
0.0187929
0.0187716
0.0187508
0.0187299
0.0187096
0.0186891
0.0186693
0.0186491
0.0186297
0.0186097
0.0185907
0.0185709
0.0185522
0.0185329
0.0185145
0.0184959
0.0184774
0.0184597
0.0184406
0.018424
0.0184041
0.0183893
0.0183679
0.0183561
0.0183318
0.00054288
0.000561115
0.000593286
0.000643353
0.000697268
0.000764179
0.000834242
0.000914602
0.00100112
0.00109883
0.0012075
0.00133273
0.00147629
0.00164714
0.00184792
0.00209112
0.00238373
0.00273723
0.0031624
0.00367041
0.00426659
0.00495749
0.00574003
0.00660946
0.00754784
0.00854277
0.00956661
0.010602
0.0116227
0.0126143
0.0135602
0.0144519
0.0152809
0.0160456
0.016744
0.0173787
0.0179507
0.0184643
0.0189227
0.0193294
0.0196904
0.0200069
0.0202853
0.020528
0.0207385
0.0209201
0.0210752
0.0212073
0.0213172
0.0214087
0.021484
0.0215433
0.0215889
0.0216223
0.0216446
0.0216577
0.0216606
0.0216572
0.0216475
0.0216302
0.0216077
0.0215803
0.0215488
0.0215132
0.0214745
0.0214324
0.0213879
0.0213415
0.0212928
0.0212423
0.0211904
0.0211371
0.0210829
0.0210276
0.0209717
0.0209151
0.020858
0.0208006
0.0207429
0.0206851
0.0206272
0.0205693
0.0205113
0.0204536
0.020396
0.0203386
0.0202815
0.0202246
0.0201682
0.0201121
0.0200564
0.020001
0.0199462
0.0198918
0.0198378
0.0197844
0.0197314
0.0196789
0.019627
0.0195756
0.0195247
0.0194744
0.0194245
0.0193753
0.0193265
0.0192783
0.0192307
0.0191836
0.019137
0.019091
0.0190455
0.0190005
0.0189561
0.0189121
0.0188688
0.0188259
0.0187835
0.0187417
0.0187003
0.0186595
0.0186191
0.0185793
0.0185399
0.018501
0.0184626
0.0184247
0.0183872
0.0183502
0.0183136
0.0182775
0.0182418
0.0182066
0.0181718
0.0181375
0.0181035
0.01807
0.0180369
0.0180042
0.0179719
0.0179401
0.0179086
0.0178775
0.0178468
0.0178165
0.0177866
0.017757
0.0177278
0.0176989
0.0176704
0.0176422
0.0176143
0.0175868
0.0175595
0.0175326
0.017506
0.0174797
0.0174538
0.0174282
0.0174029
0.017378
0.0173534
0.0173292
0.0173054
0.017282
0.017259
0.0172364
0.0172142
0.0171924
0.017171
0.01715
0.0171293
0.017109
0.017089
0.0170695
0.01705
0.017031
0.0170121
0.0169936
0.0169749
0.0169568
0.0169385
0.0169209
0.0169028
0.0168855
0.0168675
0.0168504
0.0168327
0.0168159
0.0167985
0.0167819
0.0167652
0.0167484
0.0167324
0.0167153
0.0167003
0.0166823
0.0166689
0.0166495
0.016639
0.016617
0.000541242
0.000550906
0.000567316
0.000595194
0.000627031
0.000667057
0.000709712
0.000757889
0.00080934
0.000865941
0.00092715
0.000995287
0.00107048
0.00115665
0.00125413
0.00136855
0.00150192
0.00166041
0.00184899
0.00207482
0.00234314
0.00266347
0.0030399
0.00348023
0.0039839
0.00455602
0.00518893
0.00587984
0.00661508
0.00738505
0.00817377
0.00896907
0.00975575
0.0105241
0.0112635
0.0119686
0.012633
0.0132549
0.0138325
0.0143654
0.0148557
0.015303
0.015711
0.0160807
0.0164153
0.0167166
0.0169874
0.01723
0.0174464
0.0176388
0.0178098
0.0179606
0.0180931
0.018209
0.0183096
0.0183967
0.0184706
0.0185335
0.0185864
0.0186296
0.0186641
0.0186909
0.0187107
0.0187239
0.0187318
0.0187334
0.0187313
0.0187252
0.0187145
0.0187003
0.0186831
0.018663
0.0186405
0.0186155
0.0185886
0.0185596
0.018529
0.0184973
0.018464
0.0184296
0.0183941
0.0183578
0.0183206
0.0182828
0.0182444
0.0182056
0.0181662
0.0181265
0.0180867
0.0180466
0.0180063
0.0179658
0.0179254
0.0178849
0.0178444
0.0178039
0.0177636
0.0177233
0.0176832
0.0176433
0.0176035
0.0175639
0.0175246
0.0174855
0.0174466
0.017408
0.0173696
0.0173315
0.0172938
0.0172563
0.0172191
0.0171823
0.0171457
0.0171095
0.0170736
0.017038
0.0170028
0.0169679
0.0169333
0.0168991
0.0168652
0.0168316
0.0167984
0.0167655
0.0167329
0.0167007
0.0166688
0.0166373
0.0166061
0.0165752
0.0165446
0.0165144
0.0164845
0.0164549
0.0164257
0.0163968
0.0163682
0.0163399
0.0163119
0.0162843
0.016257
0.0162299
0.0162032
0.0161768
0.0161507
0.0161249
0.0160993
0.016074
0.016049
0.0160243
0.0159999
0.0159757
0.0159517
0.015928
0.0159046
0.0158814
0.0158585
0.0158359
0.0158136
0.0157916
0.0157699
0.0157485
0.0157275
0.0157068
0.0156865
0.0156665
0.0156469
0.0156276
0.0156087
0.0155901
0.0155719
0.015554
0.0155363
0.0155191
0.0155019
0.0154852
0.0154684
0.0154521
0.0154356
0.0154195
0.0154033
0.0153876
0.0153716
0.0153561
0.0153402
0.0153249
0.015309
0.0152939
0.0152784
0.0152634
0.0152484
0.0152333
0.0152189
0.0152035
0.0151899
0.0151737
0.0151616
0.0151441
0.0151346
0.0151147
0.000540075
0.000544666
0.000552522
0.00056698
0.000584991
0.000608478
0.000634354
0.000663719
0.000695227
0.000729585
0.000766173
0.00080608
0.000848847
0.000896465
0.000948488
0.00100764
0.00107413
0.00115093
0.00123975
0.0013437
0.00146533
0.00160985
0.00177937
0.00198066
0.00221571
0.00249179
0.00280956
0.00317441
0.00358522
0.00404318
0.00454377
0.00508375
0.00565478
0.00625013
0.00685985
0.00747616
0.00808965
0.00869336
0.00928081
0.00984637
0.0103876
0.0109001
0.0113839
0.0118369
0.0122599
0.0126527
0.0130167
0.0133523
0.0136614
0.0139449
0.0142046
0.0144419
0.0146581
0.0148548
0.0150332
0.0151949
0.0153407
0.0154722
0.0155904
0.0156964
0.0157909
0.0158749
0.0159494
0.0160148
0.0160724
0.016122
0.016165
0.0162019
0.0162328
0.0162583
0.0162789
0.016295
0.0163071
0.0163152
0.0163201
0.0163212
0.0163199
0.0163162
0.0163095
0.0163008
0.0162899
0.0162773
0.0162629
0.016247
0.0162296
0.0162109
0.0161911
0.0161701
0.0161484
0.0161257
0.0161022
0.016078
0.0160532
0.0160278
0.016002
0.0159757
0.015949
0.0159219
0.0158946
0.015867
0.0158392
0.0158113
0.0157832
0.015755
0.0157267
0.0156984
0.01567
0.0156416
0.0156133
0.0155849
0.0155567
0.0155284
0.0155003
0.0154722
0.0154443
0.0154165
0.0153888
0.0153612
0.0153338
0.0153065
0.0152794
0.0152525
0.0152257
0.0151991
0.0151727
0.0151465
0.0151205
0.0150946
0.015069
0.0150436
0.0150184
0.0149933
0.0149685
0.014944
0.0149196
0.0148954
0.0148715
0.0148477
0.0148242
0.0148009
0.0147779
0.014755
0.0147324
0.01471
0.0146878
0.0146658
0.014644
0.0146224
0.014601
0.0145799
0.0145589
0.0145381
0.0145175
0.0144971
0.0144769
0.0144569
0.0144371
0.0144175
0.0143982
0.0143791
0.0143603
0.0143417
0.0143234
0.0143055
0.0142878
0.0142704
0.0142534
0.0142366
0.0142202
0.014204
0.0141882
0.0141726
0.0141572
0.0141422
0.0141273
0.0141127
0.0140981
0.0140838
0.0140694
0.0140554
0.0140411
0.0140274
0.0140133
0.0139997
0.0139856
0.0139721
0.0139581
0.0139446
0.0139308
0.0139174
0.013904
0.0138905
0.0138776
0.0138638
0.0138516
0.0138371
0.0138262
0.0138104
0.0138019
0.013784
0.000539162
0.000540424
0.000543531
0.000549995
0.000559297
0.000572244
0.000587291
0.000604811
0.000623946
0.000644984
0.000667344
0.000691582
0.000717134
0.000745069
0.000774834
0.000807821
0.000843863
0.000884258
0.000929664
0.000981432
0.00104033
0.00110902
0.00118777
0.00128056
0.00138801
0.00151439
0.00166098
0.00183238
0.00203009
0.00225783
0.00251674
0.00280936
0.00313519
0.00349422
0.00388395
0.00430174
0.00474298
0.00520268
0.00567559
0.00615514
0.00663716
0.0071149
0.00758533
0.00804333
0.00848684
0.00891271
0.00931993
0.00970664
0.0100729
0.0104178
0.010742
0.0110456
0.0113292
0.0115934
0.0118391
0.0120671
0.0122783
0.0124736
0.012654
0.0128203
0.0129733
0.0131139
0.013243
0.0133611
0.0134693
0.013568
0.0136579
0.0137397
0.0138139
0.013881
0.0139415
0.0139959
0.0140448
0.0140882
0.014127
0.0141609
0.0141907
0.0142169
0.0142392
0.0142582
0.014274
0.014287
0.0142972
0.014305
0.0143104
0.0143138
0.0143151
0.0143145
0.0143126
0.0143088
0.0143036
0.014297
0.0142893
0.0142803
0.0142703
0.0142594
0.0142475
0.0142348
0.0142214
0.0142072
0.0141924
0.0141771
0.0141612
0.0141448
0.014128
0.0141108
0.0140932
0.0140752
0.014057
0.0140385
0.0140198
0.0140009
0.0139818
0.0139625
0.0139431
0.0139236
0.013904
0.0138842
0.0138645
0.0138447
0.0138248
0.0138049
0.013785
0.0137652
0.0137453
0.0137255
0.0137057
0.0136859
0.0136662
0.0136465
0.0136269
0.0136074
0.013588
0.0135687
0.0135494
0.0135303
0.0135112
0.0134923
0.0134734
0.0134547
0.0134361
0.0134177
0.0133993
0.0133811
0.013363
0.013345
0.0133271
0.0133094
0.0132918
0.0132743
0.0132569
0.0132397
0.0132225
0.0132055
0.0131887
0.0131719
0.0131553
0.0131389
0.0131227
0.0131066
0.0130907
0.0130751
0.0130596
0.0130444
0.0130294
0.0130147
0.0130003
0.0129861
0.0129721
0.0129584
0.0129449
0.0129317
0.0129186
0.0129058
0.0128931
0.0128807
0.0128682
0.012856
0.0128437
0.0128317
0.0128195
0.0128076
0.0127955
0.0127836
0.0127715
0.0127597
0.0127475
0.0127357
0.0127237
0.0127118
0.0127
0.0126881
0.0126767
0.0126644
0.0126536
0.0126407
0.0126311
0.0126168
0.0126093
0.0125933
0.000538256
0.000537313
0.000537711
0.00053941
0.00054323
0.000549401
0.000557331
0.000567061
0.000578074
0.000590535
0.000603953
0.000618616
0.000634037
0.000650793
0.000668427
0.000687635
0.000708236
0.000730803
0.000755548
0.000783207
0.000813775
0.000848755
0.000887887
0.000933114
0.000984575
0.00104412
0.0011126
0.00119222
0.00128386
0.00139002
0.00151213
0.00165264
0.00181298
0.00199499
0.00219999
0.00242896
0.00268225
0.00295913
0.00325909
0.0035793
0.00391854
0.00427234
0.0046385
0.00501224
0.00539084
0.00576999
0.00614714
0.00651865
0.00688268
0.00723658
0.00757917
0.00790891
0.00822508
0.00852692
0.00881417
0.00908676
0.00934459
0.00958816
0.00981755
0.0100333
0.0102358
0.0104257
0.0106034
0.0107694
0.0109245
0.0110691
0.0112039
0.0113292
0.0114458
0.0115539
0.0116543
0.0117472
0.0118333
0.0119128
0.0119863
0.012054
0.0121162
0.0121735
0.012226
0.0122741
0.012318
0.0123581
0.0123945
0.0124275
0.0124572
0.0124841
0.012508
0.0125293
0.0125483
0.0125649
0.0125794
0.0125918
0.0126024
0.0126112
0.0126183
0.0126239
0.0126281
0.0126308
0.0126325
0.0126326
0.012632
0.0126304
0.0126276
0.012624
0.0126196
0.0126143
0.0126084
0.0126017
0.0125945
0.0125866
0.0125783
0.0125694
0.01256
0.0125502
0.01254
0.0125294
0.0125185
0.0125072
0.0124957
0.0124839
0.0124718
0.0124596
0.0124471
0.0124344
0.0124215
0.0124085
0.0123954
0.0123821