/*--------------------------------*- C++ -*----------------------------------*\
  =========                 |
  \\      /  F ield         | OpenFOAM: The Open Source CFD Toolbox
   \\    /   O peration     | Website:  https://openfoam.org
    \\  /    A nd           | Version:  12
     \\/     M anipulation  |
\*---------------------------------------------------------------------------*/
FoamFile
{
    format      ascii;
    class       volScalarField;
    location    "500";
    object      nut;
}
// * * * * * * * * * * * * * * * * * * * * * * * * * * * * * * * * * * * * * //

dimensions      [0 2 -1 0 0 0 0];

internalField   nonuniform List<scalar> 
20000
(
1.76054e-06
6.61329e-07
7.3255e-07
9.77624e-07
1.13846e-06
1.26664e-06
1.39367e-06
1.52819e-06
1.63982e-06
1.74263e-06
1.81171e-06
1.88678e-06
1.93493e-06
1.98301e-06
2.02389e-06
2.0613e-06
2.08976e-06
2.11443e-06
2.13405e-06
2.15187e-06
2.16526e-06
2.1765e-06
2.18533e-06
2.19236e-06
2.19826e-06
2.20212e-06
2.20493e-06
2.20664e-06
2.2071e-06
2.20686e-06
2.20613e-06
2.20456e-06
2.20234e-06
2.19981e-06
2.19674e-06
2.19336e-06
2.18983e-06
2.18598e-06
2.18175e-06
2.1775e-06
2.17296e-06
2.16838e-06
2.1636e-06
2.15877e-06
2.15388e-06
2.14891e-06
2.14383e-06
2.13878e-06
2.13364e-06
2.12855e-06
2.12342e-06
2.11834e-06
2.11318e-06
2.10808e-06
2.10301e-06
2.09796e-06
2.09293e-06
2.08793e-06
2.08297e-06
2.07804e-06
2.07316e-06
2.06831e-06
2.0635e-06
2.05874e-06
2.054e-06
2.04934e-06
2.04471e-06
2.04015e-06
2.03562e-06
2.03115e-06
2.02671e-06
2.02234e-06
2.01801e-06
2.01373e-06
2.0095e-06
2.00533e-06
2.0012e-06
1.99712e-06
1.9931e-06
1.98911e-06
1.98519e-06
1.98131e-06
1.97748e-06
1.9737e-06
1.96996e-06
1.96627e-06
1.96263e-06
1.95903e-06
1.95548e-06
1.95198e-06
1.94852e-06
1.9451e-06
1.94172e-06
1.93839e-06
1.9351e-06
1.93186e-06
1.92865e-06
1.92548e-06
1.92236e-06
1.91928e-06
1.91624e-06
1.91323e-06
1.91026e-06
1.90733e-06
1.90444e-06
1.90159e-06
1.89877e-06
1.89599e-06
1.89324e-06
1.89052e-06
1.88784e-06
1.8852e-06
1.88259e-06
1.88001e-06
1.87747e-06
1.87495e-06
1.87247e-06
1.87002e-06
1.8676e-06
1.86522e-06
1.86285e-06
1.86053e-06
1.85822e-06
1.85595e-06
1.85371e-06
1.85149e-06
1.84931e-06
1.84714e-06
1.84501e-06
1.8429e-06
1.84082e-06
1.83876e-06
1.83673e-06
1.83473e-06
1.83275e-06
1.83079e-06
1.82886e-06
1.82694e-06
1.82506e-06
1.82319e-06
1.82135e-06
1.81953e-06
1.81774e-06
1.81596e-06
1.81421e-06
1.81247e-06
1.81076e-06
1.80907e-06
1.8074e-06
1.80574e-06
1.80411e-06
1.80249e-06
1.80089e-06
1.7993e-06
1.79773e-06
1.79618e-06
1.79464e-06
1.79312e-06
1.79162e-06
1.79013e-06
1.78866e-06
1.7872e-06
1.78576e-06
1.78433e-06
1.78293e-06
1.78154e-06
1.78018e-06
1.77883e-06
1.7775e-06
1.77617e-06
1.77488e-06
1.77359e-06
1.77232e-06
1.77107e-06
1.76982e-06
1.7686e-06
1.76737e-06
1.76616e-06
1.76493e-06
1.76372e-06
1.76251e-06
1.76131e-06
1.7601e-06
1.75888e-06
1.75767e-06
1.75642e-06
1.75523e-06
1.75394e-06
1.75279e-06
1.75144e-06
1.75036e-06
1.74887e-06
1.74793e-06
1.74625e-06
1.74541e-06
1.7436e-06
1.74276e-06
1.74091e-06
1.74018e-06
1.73749e-06
3.08549e-05
2.66405e-05
2.94446e-05
3.91731e-05
4.6998e-05
5.46652e-05
6.26714e-05
7.10251e-05
7.83365e-05
8.51812e-05
9.04076e-05
9.59436e-05
9.99199e-05
0.000103962
0.000107528
0.000110817
0.000113589
0.000116099
0.000118295
0.000120331
0.00012208
0.000123667
0.000125077
0.000126351
0.000127515
0.00012853
0.000129456
0.000130285
0.000131016
0.000131677
0.000132283
0.000132815
0.000133289
0.000133719
0.000134098
0.000134439
0.000134751
0.000135025
0.000135261
0.000135478
0.000135663
0.00013583
0.000135972
0.000136097
0.000136205
0.000136295
0.000136368
0.000136431
0.000136478
0.000136517
0.000136544
0.000136563
0.000136569
0.00013657
0.000136564
0.000136552
0.000136532
0.000136506
0.000136476
0.000136441
0.000136401
0.000136357
0.00013631
0.000136259
0.000136204
0.000136147
0.000136088
0.000136026
0.000135962
0.000135897
0.000135829
0.000135759
0.000135688
0.000135617
0.000135543
0.000135469
0.000135394
0.000135319
0.000135242
0.000135165
0.000135087
0.000135009
0.000134931
0.000134852
0.000134774
0.000134695
0.000134616
0.000134537
0.000134458
0.000134379
0.0001343
0.000134221
0.000134142
0.000134064
0.000133986
0.000133908
0.00013383
0.000133753
0.000133676
0.000133599
0.000133523
0.000133448
0.000133372
0.000133297
0.000133223
0.000133149
0.000133076
0.000133003
0.00013293
0.000132858
0.000132787
0.000132716
0.000132645
0.000132576
0.000132506
0.000132437
0.000132369
0.000132302
0.000132235
0.000132168
0.000132102
0.000132037
0.000131972
0.000131908
0.000131844
0.000131781
0.000131718
0.000131656
0.000131595
0.000131534
0.000131474
0.000131414
0.000131355
0.000131296
0.000131238
0.000131181
0.000131124
0.000131068
0.000131012
0.000130957
0.000130902
0.000130848
0.000130794
0.000130741
0.000130689
0.000130637
0.000130585
0.000130534
0.000130484
0.000130434
0.000130384
0.000130335
0.000130286
0.000130238
0.000130189
0.000130142
0.000130094
0.000130047
0.00013
0.000129954
0.000129908
0.000129863
0.000129819
0.000129774
0.000129731
0.000129688
0.000129647
0.000129606
0.000129565
0.000129525
0.000129487
0.000129449
0.00012941
0.000129374
0.000129337
0.000129302
0.000129265
0.000129231
0.000129194
0.000129158
0.000129122
0.000129087
0.00012905
0.000129014
0.000128975
0.000128938
0.000128899
0.000128859
0.000128821
0.000128779
0.000128743
0.000128694
0.000128664
0.000128604
0.000128579
0.000128513
0.000128487
0.00012842
0.000128402
0.000128278
0.000184607
6.36389e-05
4.743e-05
5.26721e-05
6.47052e-05
8.1159e-05
9.89871e-05
0.000117447
0.000134263
0.000150395
0.000163998
0.000177864
0.000189172
0.000200387
0.000210633
0.000220251
0.000228698
0.000236587
0.00024373
0.000250431
0.000256425
0.000262001
0.000267111
0.000271851
0.000276263
0.000280296
0.00028403
0.000287499
0.000290693
0.00029367
0.000296465
0.000299036
0.000301425
0.000303667
0.000305747
0.000307695
0.00030954
0.00031125
0.000312844
0.000314354
0.000315758
0.000317087
0.000318329
0.000319499
0.000320606
0.000321642
0.000322616
0.000323538
0.000324403
0.000325226
0.000325999
0.000326735
0.000327421
0.000328075
0.000328696
0.000329283
0.000329837
0.000330362
0.000330861
0.000331333
0.000331781
0.000332205
0.000332607
0.00033299
0.00033335
0.000333695
0.000334021
0.000334333
0.000334627
0.000334908
0.000335173
0.000335426
0.000335665
0.000335894
0.000336111
0.000336317
0.000336513
0.0003367
0.000336877
0.000337045
0.000337206
0.000337358
0.000337503
0.00033764
0.000337771
0.000337895
0.000338013
0.000338126
0.000338232
0.000338334
0.00033843
0.000338521
0.000338607
0.00033869
0.000338767
0.000338841
0.000338911
0.000338977
0.00033904
0.0003391
0.000339156
0.000339209
0.00033926
0.000339307
0.000339352
0.000339394
0.000339434
0.000339472
0.000339507
0.000339541
0.000339572
0.000339602
0.000339629
0.000339655
0.000339679
0.000339702
0.000339723
0.000339742
0.000339761
0.000339778
0.000339793
0.000339807
0.000339821
0.000339833
0.000339844
0.000339854
0.000339863
0.000339872
0.000339879
0.000339886
0.000339891
0.000339896
0.000339901
0.000339904
0.000339908
0.00033991
0.000339912
0.000339913
0.000339914
0.000339915
0.000339915
0.000339915
0.000339914
0.000339913
0.000339911
0.00033991
0.000339908
0.000339905
0.000339902
0.000339899
0.000339895
0.000339891
0.000339886
0.00033988
0.000339874
0.000339868
0.000339861
0.000339853
0.000339846
0.000339838
0.00033983
0.000339823
0.000339817
0.000339811
0.000339805
0.000339801
0.000339798
0.000339797
0.000339796
0.000339797
0.000339799
0.000339802
0.000339805
0.000339812
0.000339816
0.000339824
0.000339828
0.000339837
0.000339837
0.000339844
0.000339843
0.00033985
0.000339845
0.000339849
0.000339837
0.000339838
0.00033982
0.000339818
0.000339796
0.000339791
0.000339767
0.000339751
0.000339733
0.000339697
0.000339687
0.000339635
0.000339619
0.000339574
0.000339561
0.000339455
0.000741314
0.000184418
0.000105279
7.55241e-05
7.64251e-05
8.81024e-05
0.000104056
0.000124333
0.000145386
0.000167338
0.000187667
0.000208493
0.000227428
0.000245877
0.000263211
0.000279641
0.000294307
0.000308328
0.000321209
0.000333399
0.00034445
0.000354886
0.000364548
0.00037362
0.000382128
0.000390011
0.000397388
0.000404311
0.00041077
0.000416861
0.000422574
0.00042793
0.000432965
0.000437723
0.000442187
0.000446411
0.000450437
0.000454208
0.000457768
0.000461163
0.000464362
0.000467411
0.000470292
0.000473034
0.000475652
0.000478127
0.000480483
0.000482733
0.00048487
0.000486919
0.000488869
0.000490738
0.000492508
0.000494213
0.000495845
0.000497405
0.000498898
0.000500329
0.000501703
0.000503019
0.000504283
0.000505496
0.000506661
0.000507781
0.000508853
0.00050989
0.000510886
0.000511847
0.00051277
0.00051366
0.000514517
0.000515344
0.00051614
0.00051691
0.000517653
0.00051837
0.000519062
0.000519733
0.000520379
0.000521004
0.00052161
0.000522195
0.000522762
0.000523311
0.000523842
0.000524357
0.000524855
0.000525339
0.000525808
0.000526263
0.000526703
0.000527132
0.000527547
0.00052795
0.000528341
0.000528722
0.000529091
0.00052945
0.0005298
0.000530139
0.00053047
0.000530791
0.000531104
0.000531408
0.000531705
0.000531994
0.000532275
0.000532549
0.000532816
0.000533076
0.00053333
0.000533577
0.000533819
0.000534055
0.000534284
0.000534509
0.000534728
0.000534942
0.000535151
0.000535356
0.000535555
0.00053575
0.000535941
0.000536128
0.00053631
0.000536488
0.000536663
0.000536834
0.000537001
0.000537165
0.000537325
0.000537482
0.000537636
0.000537787
0.000537935
0.000538079
0.000538222
0.000538361
0.000538498
0.000538632
0.000538764
0.000538894
0.000539021
0.000539146
0.000539269
0.000539389
0.000539508
0.000539624
0.000539738
0.00053985
0.000539959
0.000540066
0.00054017
0.000540273
0.000540373
0.000540471
0.000540567
0.000540661
0.000540754
0.000540845
0.000540936
0.000541026
0.000541116
0.000541206
0.000541297
0.000541389
0.000541482
0.000541576
0.000541671
0.000541768
0.000541865
0.000541965
0.000542062
0.000542166
0.000542264
0.000542368
0.000542463
0.000542566
0.000542654
0.000542752
0.000542834
0.000542932
0.000543004
0.000543096
0.000543154
0.000543238
0.000543282
0.000543361
0.000543395
0.000543467
0.000543494
0.00054355
0.000543579
0.000543608
0.000543639
0.000543646
0.000543663
0.000543684
0.000543692
0.000543664
0.00150222
0.0004913
0.000263239
0.000158032
0.000116021
0.000103208
0.000105626
0.00011759
0.000134636
0.000157062
0.000180589
0.000205639
0.000230092
0.000253966
0.000276855
0.000299138
0.000319788
0.000339556
0.000358185
0.000375997
0.000392291
0.000408017
0.000422675
0.000436631
0.000449775
0.000462052
0.000473656
0.000484614
0.000494914
0.000504702
0.000513896
0.000522598
0.000530835
0.000538653
0.000546046
0.000553082
0.000559765
0.000566114
0.000572133
0.000577894
0.000583354
0.000588579
0.000593542
0.000598292
0.000602843
0.000607166
0.000611305
0.000615271
0.000619061
0.000622707
0.000626192
0.000629546
0.000632741
0.000635833
0.000638801
0.000641651
0.00064439
0.00064703
0.000649572
0.00065202
0.000654379
0.000656653
0.000658846
0.000660963
0.000663001
0.000664979
0.000666886
0.000668732
0.000670514
0.00067224
0.000673908
0.000675525
0.000677089
0.000678605
0.000680075
0.0006815
0.000682882
0.000684225
0.000685525
0.000686788
0.000688017
0.000689209
0.000690367
0.000691493
0.000692588
0.000693653
0.000694689
0.000695698
0.000696679
0.000697636
0.000698566
0.000699473
0.000700356
0.000701217
0.000702057
0.000702876
0.000703674
0.000704453
0.000705214
0.000705956
0.000706681
0.000707388
0.00070808
0.000708756
0.000709416
0.000710061
0.000710692
0.00071131
0.000711913
0.000712503
0.000713081
0.000713647
0.0007142
0.000714742
0.000715273
0.000715793
0.000716302
0.000716802
0.000717291
0.000717771
0.00071824
0.000718701
0.000719153
0.000719597
0.000720032
0.000720459
0.000720878
0.000721289
0.000721693
0.000722089
0.000722479
0.000722861
0.000723237
0.000723606
0.000723968
0.000724325
0.000724676
0.00072502
0.00072536
0.000725693
0.000726022
0.000726345
0.000726663
0.000726976
0.000727284
0.000727587
0.000727885
0.000728179
0.000728467
0.000728751
0.00072903
0.000729304
0.000729573
0.000729838
0.000730097
0.000730353
0.000730603
0.000730851
0.000731094
0.000731335
0.000731574
0.000731811
0.000732046
0.00073228
0.000732514
0.000732748
0.000732983
0.000733219
0.000733455
0.000733692
0.000733929
0.000734169
0.000734403
0.000734645
0.000734879
0.000735119
0.000735346
0.000735584
0.000735797
0.000736025
0.000736228
0.000736451
0.000736638
0.000736851
0.000737014
0.000737214
0.000737354
0.000737543
0.000737665
0.000737842
0.000737951
0.000738105
0.000738207
0.000738329
0.000738421
0.000738518
0.000738582
0.0007387
0.000738728
0.000738837
0.00202513
0.000999384
0.000588387
0.000356142
0.000242865
0.000176816
0.000145635
0.000134442
0.000134977
0.000145408
0.000161854
0.000183387
0.000207573
0.000233374
0.000259478
0.000285859
0.000311546
0.000336609
0.000360583
0.000383843
0.000405662
0.00042665
0.00044647
0.00046551
0.000483394
0.000500256
0.000516401
0.000531718
0.000546222
0.000560099
0.000573149
0.000585618
0.000597485
0.000608791
0.000619544
0.000629833
0.000639599
0.00064896
0.000657874
0.000666431
0.000674571
0.000682385
0.000689853
0.000696992
0.000703854
0.000710416
0.000716716
0.000722765
0.000728568
0.000734162
0.000739528
0.0007447
0.000749649
0.000754453
0.000759071
0.000763516
0.000767803
0.000771946
0.000775944
0.000779804
0.000783533
0.000787137
0.000790621
0.000793991
0.000797248
0.000800414
0.000803472
0.000806438
0.000809309
0.000812096
0.000814796
0.000817419
0.000819963
0.000822434
0.000824834
0.000827166
0.000829432
0.000831637
0.000833778
0.000835864
0.000837895
0.000839869
0.000841792
0.000843665
0.000845489
0.000847269
0.000849001
0.000850692
0.00085234
0.000853949
0.000855517
0.000857049
0.000858543
0.000860003
0.000861428
0.000862821
0.00086418
0.00086551
0.000866812
0.000868082
0.000869326
0.000870542
0.000871732
0.000872897
0.000874037
0.000875153
0.000876245
0.000877316
0.000878364
0.000879392
0.000880398
0.000881386
0.000882353
0.000883302
0.000884232
0.000885145
0.00088604
0.000886918
0.00088778
0.000888626
0.000889456
0.000890272
0.000891072
0.000891859
0.000892631
0.00089339
0.000894135
0.000894868
0.000895588
0.000896296
0.000896992
0.000897676
0.000898349
0.000899011
0.000899662
0.000900303
0.000900933
0.000901554
0.000902164
0.000902766
0.000903358
0.000903941
0.000904515
0.000905081
0.000905638
0.000906187
0.000906727
0.000907259
0.000907783
0.000908299
0.000908806
0.000909305
0.000909795
0.000910279
0.000910754
0.000911223
0.000911683
0.000912138
0.000912585
0.000913028
0.000913466
0.000913901
0.000914332
0.00091476
0.000915186
0.000915611
0.000916035
0.00091646
0.000916883
0.000917306
0.000917727
0.000918151
0.000918566
0.000918989
0.000919401
0.000919819
0.000920219
0.000920631
0.000921011
0.000921405
0.000921768
0.000922153
0.000922493
0.000922861
0.000923168
0.000923514
0.000923787
0.000924115
0.00092436
0.000924669
0.000924892
0.000925171
0.000925376
0.000925618
0.000925797
0.000926013
0.000926142
0.000926391
0.000926436
0.000926744
0.00226807
0.00154533
0.00104269
0.000695888
0.000495072
0.000353901
0.000271959
0.000215489
0.000184313
0.000169878
0.000166806
0.000173436
0.000187036
0.000206238
0.00022895
0.000254343
0.000280953
0.000308312
0.000335481
0.000362558
0.00038875
0.000414274
0.000438788
0.000462504
0.000485217
0.000506851
0.000527618
0.000547516
0.00056653
0.000584796
0.000601965
0.000618581
0.000634435
0.000649586
0.000664077
0.000677993
0.000691199
0.000703916
0.000716058
0.00072775
0.000738904
0.000749655
0.000759963
0.00076983
0.000779342
0.000788477
0.000797273
0.000805734
0.000813879
0.000821745
0.000829306
0.000836609
0.000843633
0.000850434
0.000857002
0.000863341
0.00086947
0.000875404
0.00088114
0.000886688
0.000892058
0.000897259
0.000902295
0.000907173
0.000911901
0.000916502
0.000920952
0.000925275
0.000929469
0.000933544
0.000937501
0.00094135
0.000945088
0.000948725
0.000952263
0.000955705
0.000959056
0.000962319
0.000965492
0.000968592
0.000971609
0.000974548
0.000977414
0.00098021
0.000982937
0.000985599
0.000988195
0.000990731
0.000993207
0.000995626
0.000997987
0.0010003
0.00100255
0.00100476
0.00100691
0.00100902
0.00101108
0.0010131
0.00101508
0.00101701
0.0010189
0.00102076
0.00102257
0.00102435
0.00102609
0.0010278
0.00102947
0.00103111
0.00103272
0.0010343
0.00103585
0.00103737
0.00103886
0.00104032
0.00104175
0.00104316
0.00104454
0.0010459
0.00104724
0.00104855
0.00104983
0.0010511
0.00105234
0.00105356
0.00105476
0.00105594
0.0010571
0.00105824
0.00105937
0.00106047
0.00106156
0.00106262
0.00106368
0.00106471
0.00106573
0.00106673
0.00106772
0.00106869
0.00106965
0.00107059
0.00107152
0.00107243
0.00107334
0.00107422
0.0010751
0.00107596
0.00107681
0.00107765
0.00107847
0.00107929
0.00108008
0.00108087
0.00108165
0.00108241
0.00108316
0.0010839
0.00108463
0.00108535
0.00108606
0.00108677
0.00108746
0.00108815
0.00108883
0.0010895
0.00109018
0.00109084
0.00109151
0.00109217
0.00109283
0.00109349
0.00109414
0.0010948
0.00109544
0.00109609
0.00109673
0.00109737
0.00109798
0.00109861
0.00109921
0.00109981
0.00110037
0.00110096
0.00110149
0.00110205
0.00110254
0.00110307
0.00110352
0.00110402
0.00110442
0.0011049
0.00110527
0.00110571
0.00110605
0.00110644
0.00110673
0.00110711
0.00110732
0.00110774
0.00110781
0.00110837
0.00235557
0.0019664
0.00150157
0.00111659
0.000855113
0.000645509
0.000506374
0.00039706
0.000323116
0.000267775
0.000232114
0.000212155
0.000203293
0.000204445
0.000213167
0.000228269
0.000247977
0.00027129
0.000296705
0.000323717
0.000351267
0.00037907
0.000406585
0.00043371
0.000460225
0.000485941
0.000510827
0.000534937
0.000558134
0.000580622
0.000602065
0.000622765
0.00064267
0.000661789
0.000680214
0.000697934
0.00071476
0.000731132
0.000746795
0.000761922
0.000776389
0.000790423
0.00080388
0.000816793
0.000829288
0.000841317
0.000852933
0.000864118
0.000874926
0.000885374
0.000895433
0.000905168
0.000914569
0.000923664
0.000932473
0.000940989
0.00094923
0.000957223
0.000964954
0.000972449
0.000979714
0.000986763
0.000993598
0.00100024
0.00100667
0.00101294
0.00101902
0.00102493
0.00103067
0.00103626
0.0010417
0.00104699
0.00105213
0.00105715
0.00106203
0.00106679
0.00107142
0.00107594
0.00108034
0.00108465
0.00108884
0.00109292
0.00109692
0.00110082
0.00110462
0.00110834
0.00111197
0.00111553
0.00111899
0.00112239
0.0011257
0.00112895
0.00113212
0.00113522
0.00113826
0.00114123
0.00114414
0.00114699
0.00114979
0.00115252
0.0011552
0.00115783
0.0011604
0.00116293
0.0011654
0.00116783
0.00117021
0.00117254
0.00117483
0.00117708
0.00117929
0.00118145
0.00118358
0.00118567
0.00118772
0.00118974
0.00119171
0.00119366
0.00119557
0.00119745
0.00119929
0.00120111
0.0012029
0.00120465
0.00120638
0.00120807
0.00120974
0.00121139
0.001213
0.00121459
0.00121616
0.0012177
0.00121922
0.00122071
0.00122218
0.00122363
0.00122506
0.00122646
0.00122785
0.00122921
0.00123056
0.00123188
0.00123319
0.00123447
0.00123574
0.00123699
0.00123822
0.00123944
0.00124064
0.00124181
0.00124298
0.00124412
0.00124525
0.00124636
0.00124745
0.00124853
0.0012496
0.00125065
0.00125168
0.0012527
0.00125372
0.00125472
0.00125571
0.00125669
0.00125766
0.00125863
0.00125959
0.00126055
0.0012615
0.00126245
0.00126339
0.00126433
0.00126525
0.00126617
0.00126708
0.00126799
0.00126888
0.00126977
0.00127062
0.00127148
0.00127229
0.00127312
0.00127389
0.00127469
0.00127541
0.00127617
0.00127683
0.00127754
0.00127815
0.00127882
0.00127938
0.00128002
0.00128053
0.00128111
0.00128155
0.00128212
0.00128245
0.00128307
0.00128319
0.00128407
0.00237522
0.00222138
0.00187434
0.00152478
0.00125212
0.001009
0.000828865
0.000675642
0.000559755
0.000463305
0.000390938
0.000332992
0.000291229
0.00026418
0.000247927
0.000241755
0.000243886
0.000253126
0.00026792
0.000287297
0.000309895
0.000334887
0.000361341
0.000388692
0.000416443
0.000444231
0.000471709
0.000498837
0.000525316
0.000551284
0.000576437
0.000600871
0.000624549
0.000647475
0.000669638
0.000691147
0.000711754
0.000731766
0.00075103
0.000769711
0.000787639
0.000805151
0.000821873
0.000838013
0.000853716
0.000868853
0.000883513
0.000897646
0.000911368
0.000924631
0.000937422
0.000949839
0.000961864
0.000973508
0.000984808
0.000995748
0.00100636
0.00101667
0.00102665
0.00103635
0.00104576
0.00105491
0.0010638
0.00107244
0.00108084
0.00108901
0.00109696
0.00110469
0.00111222
0.00111954
0.00112668
0.00113363
0.00114041
0.00114701
0.00115345
0.00115973
0.00116585
0.00117183
0.00117766
0.00118336
0.00118892
0.00119435
0.00119965
0.00120483
0.00120989
0.00121484
0.00121968
0.00122442
0.00122905
0.00123358
0.00123801
0.00124235
0.0012466
0.00125076
0.00125483
0.00125882
0.00126272
0.00126656
0.00127031
0.00127399
0.0012776
0.00128114
0.00128461
0.00128802
0.00129136
0.00129464
0.00129785
0.00130101
0.00130411
0.00130716
0.00131015
0.00131308
0.00131597
0.0013188
0.00132159
0.00132432
0.00132701
0.00132966
0.00133226
0.00133482
0.00133733
0.0013398
0.00134224
0.00134463
0.00134698
0.0013493
0.00135158
0.00135383
0.00135604
0.00135821
0.00136035
0.00136246
0.00136454
0.00136658
0.0013686
0.00137058
0.00137254
0.00137446
0.00137636
0.00137823
0.00138008
0.0013819
0.00138369
0.00138545
0.0013872
0.00138891
0.00139061
0.00139228
0.00139392
0.00139554
0.00139714
0.00139872
0.00140027
0.0014018
0.00140331
0.0014048
0.00140627
0.00140772
0.00140915
0.00141056
0.00141195
0.00141333
0.0014147
0.00141605
0.00141739
0.00141872
0.00142004
0.00142135
0.00142265
0.00142394
0.00142523
0.0014265
0.00142776
0.00142902
0.00143025
0.00143149
0.00143269
0.0014339
0.00143507
0.00143622
0.00143734
0.00143846
0.00143953
0.00144061
0.00144161
0.00144263
0.00144356
0.00144453
0.00144539
0.00144631
0.0014471
0.00144798
0.0014487
0.00144952
0.00145014
0.00145095
0.00145142
0.0014523
0.0014525
0.00145376
0.00237154
0.00234596
0.00213198
0.00185902
0.00161675
0.0013779
0.00118499
0.00101016
0.000866936
0.000740619
0.00063734
0.00054609
0.000474104
0.000412498
0.000363874
0.000328708
0.000304165
0.000289302
0.000283254
0.000284844
0.000292874
0.000306381
0.000324191
0.000345371
0.000369015
0.000394466
0.000420974
0.000448228
0.000475683
0.000503252
0.000530573
0.000557551
0.00058404
0.000610016
0.000635339
0.000660136
0.000684153
0.00070757
0.000730256
0.000752361
0.000773709
0.000794539
0.000814683
0.000834146
0.000853086
0.000871422
0.000889244
0.000906459
0.000923278
0.000939488
0.000955168
0.000970468
0.000985309
0.000999698
0.00101369
0.00102726
0.00104046
0.0010533
0.00106573
0.00107784
0.00108962
0.00110108
0.00111223
0.00112309
0.00113364
0.00114393
0.00115396
0.00116372
0.00117323
0.00118251
0.00119155
0.00120037
0.00120897
0.00121737
0.00122556
0.00123355
0.00124137
0.00124899
0.00125644
0.00126372
0.00127083
0.00127779
0.00128458
0.00129123
0.00129773
0.0013041
0.00131032
0.00131641
0.00132238
0.00132822
0.00133394
0.00133954
0.00134503
0.0013504
0.00135567
0.00136084
0.0013659
0.00137087
0.00137574
0.00138052
0.0013852
0.0013898
0.00139431
0.00139874
0.00140309
0.00140736
0.00141155
0.00141567
0.00141971
0.00142368
0.00142758
0.00143142
0.00143519
0.00143889
0.00144254
0.00144612
0.00144964
0.0014531
0.00145651
0.00145986
0.00146316
0.0014664
0.00146959
0.00147273
0.00147583
0.00147887
0.00148187
0.00148482
0.00148772
0.00149058
0.0014934
0.00149617
0.00149891
0.0015016
0.00150426
0.00150687
0.00150945
0.00151199
0.0015145
0.00151697
0.0015194
0.0015218
0.00152417
0.0015265
0.0015288
0.00153107
0.00153331
0.00153552
0.00153769
0.00153984
0.00154196
0.00154404
0.0015461
0.00154813
0.00155013
0.00155211
0.00155406
0.00155598
0.00155787
0.00155974
0.00156159
0.00156342
0.00156524
0.00156703
0.0015688
0.00157056
0.0015723
0.00157403
0.00157574
0.00157745
0.00157913
0.00158081
0.00158246
0.00158411
0.00158573
0.00158735
0.00158893
0.00159051
0.00159205
0.00159357
0.00159504
0.00159651
0.00159792
0.00159934
0.00160068
0.00160202
0.00160328
0.00160455
0.00160571
0.00160693
0.001608
0.00160917
0.00161015
0.00161126
0.0016121
0.0016132
0.00161387
0.00161502
0.00161538
0.00161706
0.0023634
0.0023892
0.00228623
0.00209801
0.00190995
0.00170374
0.00152199
0.00134861
0.00119777
0.00105834
0.000937349
0.000826413
0.000731066
0.000644814
0.000570318
0.000506562
0.000451933
0.000408295
0.000375272
0.000350943
0.000335438
0.000327975
0.000327504
0.000333238
0.000344232
0.000359657
0.000378512
0.000400173
0.000423803
0.000448966
0.00047509
0.000501851
0.000528875
0.000556019
0.00058298
0.000609782
0.000636148
0.000662126
0.000687551
0.000712509
0.000736845
0.000760652
0.000783895
0.000806481
0.000828525
0.00084996
0.000870875
0.000891169
0.00091099
0.000930253
0.000948942
0.000967156
0.000984893
0.00100213
0.00101894
0.00103526
0.00105122
0.0010667
0.00108172
0.00109643
0.00111073
0.00112468
0.00113826
0.00115151
0.00116441
0.00117701
0.0011893
0.00120126
0.00121294
0.00122435
0.00123548
0.00124635
0.00125696
0.00126734
0.00127746
0.00128736
0.00129705
0.0013065
0.00131574
0.00132479
0.00133363
0.00134229
0.00135076
0.00135905
0.00136716
0.00137511
0.00138288
0.00139051
0.00139797
0.00140529
0.00141245
0.00141948
0.00142636
0.00143312
0.00143974
0.00144624
0.00145261
0.00145886
0.001465
0.00147102
0.00147693
0.00148273
0.00148843
0.00149402
0.00149952
0.00150491
0.00151022
0.00151543
0.00152055
0.00152558
0.00153053
0.0015354
0.00154018
0.00154488
0.00154951
0.00155406
0.00155854
0.00156294
0.00156728
0.00157154
0.00157574
0.00157987
0.00158394
0.00158794
0.00159188
0.00159577
0.00159959
0.00160336
0.00160707
0.00161072
0.00161432
0.00161787
0.00162137
0.00162482
0.00162821
0.00163156
0.00163486
0.00163812
0.00164133
0.00164449
0.00164761
0.00165069
0.00165372
0.00165672
0.00165967
0.00166258
0.00166545
0.00166829
0.00167108
0.00167384
0.00167656
0.00167925
0.00168189
0.00168451
0.00168708
0.00168963
0.00169213
0.00169461
0.00169705
0.00169946
0.00170184
0.0017042
0.00170653
0.00170884
0.00171112
0.00171337
0.00171561
0.00171783
0.00172003
0.00172221
0.00172437
0.00172651
0.00172863
0.00173073
0.00173281
0.00173487
0.00173689
0.0017389
0.00174087
0.00174282
0.00174471
0.00174658
0.0017484
0.00175021
0.00175194
0.00175367
0.0017553
0.00175695
0.00175847
0.00176003
0.00176144
0.00176295
0.00176425
0.00176571
0.00176683
0.00176827
0.00176917
0.00177066
0.00177125
0.0017734
0.00235738
0.00239313
0.00236244
0.00224918
0.00212
0.00196192
0.00180779
0.00165277
0.00151022
0.0013736
0.00124956
0.00113252
0.00102601
0.000927348
0.000837306
0.00075556
0.000679758
0.000614699
0.000555746
0.000504262
0.000463007
0.000429834
0.000404397
0.00038686
0.000376687
0.000373096
0.000375422
0.00038303
0.000395049
0.000410826
0.0004296
0.000450813
0.000473816
0.000498241
0.000523571
0.000549612
0.000575981
0.000602556
0.000629081
0.000655505
0.000681669
0.000707506
0.000733009
0.000758032
0.000782627
0.000806704
0.000830327
0.000853399
0.000875993
0.000898082
0.000919631
0.000940672
0.000961233
0.000981286
0.00100088
0.00101998
0.00103865
0.00105688
0.00107461
0.00109195
0.00110887
0.00112539
0.00114151
0.00115727
0.00117263
0.00118769
0.00120236
0.00121664
0.00123065
0.00124435
0.00125772
0.0012708
0.00128357
0.00129608
0.0013083
0.00132027
0.00133198
0.00134342
0.00135462
0.00136559
0.00137633
0.00138685
0.00139715
0.00140724
0.00141713
0.00142682
0.00143631
0.00144562
0.00145474
0.00146369
0.00147246
0.00148106
0.0014895
0.00149779
0.00150591
0.00151389
0.00152172
0.00152941
0.00153695
0.00154437
0.00155165
0.0015588
0.00156582
0.00157273
0.00157951
0.00158618
0.00159273
0.00159917
0.00160551
0.00161174
0.00161786
0.00162389
0.00162982
0.00163565
0.00164139
0.00164703
0.00165259
0.00165806
0.00166345
0.00166875
0.00167396
0.00167911
0.00168417
0.00168915
0.00169406
0.0016989
0.00170366
0.00170836
0.00171299
0.00171755
0.00172204
0.00172647
0.00173084
0.00173514
0.00173939
0.00174357
0.0017477
0.00175177
0.00175578
0.00175974
0.00176365
0.0017675
0.0017713
0.00177505
0.00177875
0.0017824
0.001786
0.00178956
0.00179306
0.00179652
0.00179994
0.00180331
0.00180663
0.00180991
0.00181315
0.00181635
0.0018195
0.00182261
0.00182568
0.00182872
0.00183172
0.00183468
0.00183761
0.00184051
0.00184338
0.00184621
0.00184902
0.0018518
0.00185456
0.00185729
0.00186
0.00186268
0.00186533
0.00186796
0.00187055
0.00187312
0.00187565
0.00187817
0.00188063
0.00188307
0.00188544
0.00188779
0.00189007
0.00189235
0.00189453
0.00189671
0.00189879
0.0019009
0.00190285
0.0019048
0.00190662
0.00190854
0.00191017
0.00191206
0.00191352
0.00191535
0.00191654
0.00191842
0.0019194
0.00192198
0.00235431
0.00238296
0.00238922
0.00233295
0.00225401
0.0021468
0.00202857
0.00190201
0.00177881
0.00165623
0.00154027
0.00142819
0.00132243
0.00122215
0.00112683
0.00103784
0.000953411
0.000875148
0.000802345
0.000733631
0.000673466
0.000617465
0.000568189
0.000527041
0.000492849
0.000465191
0.000444704
0.000430902
0.000423259
0.000421353
0.0004246
0.000432452
0.000444196
0.000459322
0.000477171
0.000497304
0.000519184
0.000542462
0.00056674
0.000591757
0.000617276
0.000643053
0.000669004
0.000694912
0.000720737
0.000746335
0.000771703
0.000796731
0.000821415
0.000845723
0.000869617
0.000893071
0.000916104
0.000938677
0.00096082
0.000982501
0.00100374
0.00102456
0.00104491
0.00106484
0.00108433
0.00110342
0.00112208
0.00114037
0.00115823
0.00117574
0.00119288
0.0012096
0.001226
0.00124205
0.00125776
0.00127314
0.00128819
0.00130295
0.00131737
0.00133155
0.00134539
0.00135893
0.00137223
0.00138527
0.00139804
0.00141056
0.00142283
0.00143486
0.00144666
0.00145823
0.00146958
0.00148072
0.00149163
0.00150235
0.00151287
0.0015232
0.00153334
0.0015433
0.00155307
0.00156267
0.0015721
0.00158136
0.00159046
0.00159941
0.0016082
0.00161683
0.00162532
0.00163367
0.00164188
0.00164995
0.00165789
0.0016657
0.00167338
0.00168093
0.00168837
0.00169569
0.00170289
0.00170997
0.00171695
0.00172382
0.00173058
0.00173724
0.0017438
0.00175026
0.00175662
0.00176289
0.00176907
0.00177515
0.00178115
0.00178705
0.00179288
0.00179862
0.00180427
0.00180985
0.00181535
0.00182077
0.00182612
0.00183139
0.00183659
0.00184172
0.00184678
0.00185177
0.00185669
0.00186155
0.00186634
0.00187107
0.00187574
0.00188034
0.00188489
0.00188938
0.0018938
0.00189817
0.00190249