/*--------------------------------*- C++ -*----------------------------------*\
  =========                 |
  \\      /  F ield         | OpenFOAM: The Open Source CFD Toolbox
   \\    /   O peration     | Website:  https://openfoam.org
    \\  /    A nd           | Version:  12
     \\/     M anipulation  |
\*---------------------------------------------------------------------------*/
FoamFile
{
    format      ascii;
    class       volScalarField;
    location    "500";
    object      p;
}
// * * * * * * * * * * * * * * * * * * * * * * * * * * * * * * * * * * * * * //

dimensions      [0 2 -2 0 0 0 0];

internalField   nonuniform List<scalar> 
20000
(
0.261296
0.140028
0.113721
0.111844
0.109484
0.107466
0.10611
0.10494
0.103889
0.10286
0.101867
0.100925
0.100017
0.0991548
0.09833
0.097532
0.0967531
0.0959781
0.0952176
0.0944797
0.0937474
0.0930222
0.0923091
0.0916046
0.0909106
0.0902186
0.0895357
0.0888555
0.0881837
0.0875128
0.0868505
0.0861897
0.0855343
0.0848819
0.0842329
0.0835878
0.0829479
0.0823098
0.0816752
0.0810437
0.0804143
0.0797898
0.0791662
0.0785474
0.0779292
0.0773153
0.0767025
0.076094
0.0754863
0.0748827
0.0742803
0.0736811
0.0730836
0.0724889
0.0718962
0.0713061
0.0707179
0.0701317
0.0695482
0.0689664
0.068387
0.0678093
0.0672337
0.0666602
0.0660882
0.0655187
0.0649507
0.064385
0.0638207
0.0632586
0.0626978
0.0621391
0.0615819
0.0610267
0.060473
0.0599211
0.0593708
0.0588221
0.0582751
0.0577294
0.0571856
0.0566431
0.0561024
0.055563
0.0550252
0.0544887
0.0539538
0.0534202
0.052888
0.0523573
0.0518279
0.0512999
0.0507732
0.0502479
0.0497238
0.049201
0.0486796
0.0481592
0.0476403
0.0471225
0.0466061
0.0460908
0.0455768
0.0450638
0.0445521
0.0440414
0.043532
0.0430237
0.0425164
0.0420103
0.0415052
0.0410014
0.0404984
0.0399968
0.0394959
0.0389963
0.0384976
0.038
0.0375033
0.0370078
0.0365131
0.0360195
0.0355268
0.0350351
0.0345443
0.0340546
0.0335657
0.0330777
0.0325907
0.0321046
0.0316195
0.0311351
0.0306518
0.0301693
0.0296877
0.0292069
0.0287271
0.028248
0.0277699
0.0272924
0.0268159
0.0263402
0.0258653
0.0253912
0.024918
0.0244455
0.023974
0.0235031
0.0230332
0.0225641
0.0220959
0.0216284
0.0211619
0.0206961
0.0202312
0.019767
0.0193036
0.0188409
0.0183789
0.0179175
0.0174568
0.0169967
0.0165371
0.016078
0.0156196
0.0151614
0.0147038
0.0142466
0.0137899
0.0133335
0.0128777
0.0124222
0.0119674
0.0115131
0.0110596
0.0106066
0.0101546
0.00970313
0.00925306
0.00880332
0.0083555
0.00790781
0.00746275
0.0070172
0.00657542
0.00613227
0.00569455
0.00525365
0.00482074
0.00438212
0.00395534
0.00351855
0.00309923
0.00266436
0.00225373
0.00182082
0.00142084
0.000984579
0.000609027
0.000112812
0.224881
0.138033
0.114391
0.112298
0.10975
0.107646
0.106251
0.105055
0.103984
0.10294
0.101936
0.100985
0.100069
0.0992013
0.0983714
0.0975693
0.0967868
0.0960088
0.0952458
0.0945055
0.0937713
0.0930443
0.0923297
0.0916239
0.0909286
0.0902355
0.0895517
0.0888706
0.0881979
0.0875263
0.0868633
0.0862019
0.0855459
0.084893
0.0842435
0.0835979
0.0829576
0.0823191
0.0816842
0.0810523
0.0804226
0.0797977
0.0791739
0.0785548
0.0779364
0.0773222
0.0767092
0.0761006
0.0754926
0.0748888
0.0742862
0.0736868
0.0730892
0.0724944
0.0719015
0.0713112
0.0707229
0.0701365
0.0695529
0.068971
0.0683915
0.0678137
0.067238
0.0666644
0.0660923
0.0655227
0.0649546
0.0643889
0.0638244
0.0632622
0.0627014
0.0621426
0.0615853
0.06103
0.0604763
0.0599243
0.0593739
0.0588252
0.0582781
0.0577324
0.0571885
0.056646
0.0561052
0.0555657
0.0550279
0.0544914
0.0539564
0.0534228
0.0528905
0.0523598
0.0518303
0.0513023
0.0507755
0.0502502
0.0497261
0.0492032
0.0486818
0.0481614
0.0476424
0.0471246
0.0466082
0.0460928
0.0455787
0.0450657
0.044554
0.0440433
0.0435338
0.0430255
0.0425182
0.0420121
0.041507
0.0410031
0.0405001
0.0399984
0.0394976
0.038998
0.0384992
0.0380016
0.0375049
0.0370093
0.0365146
0.036021
0.0355282
0.0350365
0.0345457
0.034056
0.033567
0.0330791
0.0325921
0.032106
0.0316208
0.0311364
0.0306531
0.0301705
0.029689
0.0292081
0.0287283
0.0282492
0.027771
0.0272936
0.0268171
0.0263413
0.0258664
0.0253923
0.0249191
0.0244466
0.023975
0.0235042
0.0230343
0.0225652
0.0220969
0.0216295
0.0211629
0.0206971
0.0202322
0.0197679
0.0193045
0.0188418
0.0183798
0.0179184
0.0174577
0.0169976
0.016538
0.0160789
0.0156204
0.0151623
0.0147047
0.0142474
0.0137908
0.0133343
0.0128785
0.012423
0.0119683
0.011514
0.0110604
0.0106074
0.0101555
0.00970396
0.00925389
0.00880414
0.00835633
0.00790863
0.00746357
0.00701802
0.00657624
0.00613308
0.00569536
0.00525445
0.00482155
0.00438292
0.00395615
0.00351935
0.00310003
0.00266519
0.00225454
0.00182166
0.00142169
0.00098543
0.000609946
0.000113606
0.209387
0.140121
0.11597
0.113009
0.110184
0.107965
0.106509
0.105267
0.104162
0.10309
0.102067
0.1011
0.10017
0.0992934
0.0984542
0.0976441
0.0968545
0.0960706
0.0953027
0.0945579
0.0938195
0.0930891
0.0923715
0.0916629
0.090965
0.0902696
0.0895838
0.0889008
0.0882264
0.0875533
0.0868889
0.0862262
0.085569
0.0849149
0.0842644
0.083618
0.0829768
0.0823374
0.0817018
0.0810691
0.0804388
0.0798133
0.0791889
0.0785693
0.0779503
0.0773357
0.0767222
0.0761131
0.0755047
0.0749006
0.0742976
0.0736978
0.0730999
0.0725048
0.0719116
0.071321
0.0707324
0.0701458
0.0695619
0.0689798
0.0684
0.067822
0.0672461
0.0666723
0.0661
0.0655302
0.0649619
0.064396
0.0638314
0.063269
0.0627081
0.0621491
0.0615917
0.0610363
0.0604824
0.0599303
0.0593798
0.0588309
0.0582838
0.0577379
0.0571939
0.0566513
0.0561104
0.0555708
0.0550329
0.0544963
0.0539611
0.0534275
0.0528951
0.0523643
0.0518347
0.0513067
0.0507798
0.0502544
0.0497302
0.0492073
0.0486857
0.0481653
0.0476463
0.0471284
0.0466119
0.0460965
0.0455823
0.0450693
0.0445575
0.0440468
0.0435372
0.0430288
0.0425214
0.0420153
0.0415101
0.0410062
0.0405032
0.0400015
0.0395006
0.0390009
0.0385021
0.0380045
0.0375077
0.0370121
0.0365173
0.0360237
0.0355309
0.0350392
0.0345483
0.0340585
0.0335696
0.0330816
0.0325945
0.0321084
0.0316232
0.0311388
0.0306554
0.0301728
0.0296912
0.0292104
0.0287305
0.0282514
0.0277732
0.0272957
0.0268192
0.0263434
0.0258685
0.0253943
0.024921
0.0244486
0.023977
0.0235061
0.0230362
0.022567
0.0220988
0.0216313
0.0211647
0.0206989
0.0202339
0.0197696
0.0193062
0.0188435
0.0183815
0.0179201
0.0174594
0.0169992
0.0165396
0.0160805
0.015622
0.0151639
0.0147063
0.014249
0.0137923
0.0133359
0.01288
0.0124246
0.0119698
0.0115155
0.0110619
0.0106089
0.010157
0.00970545
0.00925538
0.00880563
0.00835781
0.0079101
0.00746503
0.00701946
0.00657769
0.0061345
0.0056968
0.00525586
0.00482298
0.00438432
0.00395757
0.00352075
0.00310143
0.0026666
0.00225595
0.00182308
0.00142319
0.000986814
0.000611621
0.000114132
0.203873
0.141225
0.117887
0.113722
0.110645
0.108317
0.106796
0.105509
0.10437
0.103271
0.102229
0.101247
0.100302
0.0994161
0.098566
0.0977456
0.0969472
0.0961562
0.095382
0.0946314
0.0938874
0.0931525
0.0924307
0.0917186
0.0910171
0.0903185
0.0896299
0.0889443
0.0882676
0.0875923
0.0869259
0.0862613
0.0856025
0.0849468
0.0842948
0.0836471
0.0830046
0.082364
0.0817273
0.0810936
0.0804624
0.079836
0.0792107
0.0785903
0.0779706
0.0773551
0.0767411
0.0761313
0.0755223
0.0749176
0.0743141
0.0737138
0.0731154
0.0725198
0.0719262
0.0713352
0.0707462
0.0701592
0.0695749
0.0689924
0.0684123
0.067834
0.0672578
0.0666837
0.0661111
0.0655411
0.0649725
0.0644063
0.0638415
0.0632789
0.0627177
0.0621585
0.0616009
0.0610453
0.0604912
0.0599389
0.0593882
0.0588392
0.0582918
0.0577458
0.0572016
0.0566589
0.0561178
0.0555781
0.05504
0.0545033
0.053968
0.0534342
0.0529017
0.0523708
0.0518411
0.0513129
0.0507859
0.0502604
0.0497361
0.0492131
0.0486915
0.0481709
0.0476518
0.0471338
0.0466172
0.0461017
0.0455875
0.0450744
0.0445625
0.0440517
0.043542
0.0430336
0.0425261
0.0420199
0.0415147
0.0410107
0.0405076
0.0400058
0.0395048
0.0390051
0.0385062
0.0380085
0.0375117
0.037016
0.0365212
0.0360275
0.0355347
0.0350429
0.034552
0.0340621
0.0335731
0.0330851
0.032598
0.0321118
0.0316265
0.0311421
0.0306587
0.0301761
0.0296944
0.0292135
0.0287336
0.0282545
0.0277762
0.0272987
0.0268221
0.0263463
0.0258714
0.0253972
0.0249239
0.0244514
0.0239797
0.0235088
0.0230389
0.0225697
0.0221014
0.0216338
0.0211672
0.0207014
0.0202364
0.0197721
0.0193087
0.0188459
0.0183839
0.0179224
0.0174617
0.0170015
0.0165419
0.0160828
0.0156243
0.0151661
0.0147085
0.0142512
0.0137945
0.0133381
0.0128822
0.0124268
0.011972
0.0115176
0.0110641
0.0106111
0.0101591
0.00970757
0.00925749
0.00880771
0.00835989
0.00791215
0.00746709
0.00702148
0.00657971
0.00613648
0.00569879
0.0052578
0.00482495
0.00438624
0.0039595
0.00352265
0.00310333
0.00266849
0.00225785
0.00182495
0.00142519
0.000988691
0.000613739
0.000114224
0.197889
0.140702
0.119669
0.114619
0.111082
0.108623
0.107036
0.105713
0.104554
0.103443
0.102391
0.101397
0.100442
0.0995468
0.0986865
0.0978567
0.0970501
0.0962522
0.0954719
0.0947154
0.0939657
0.0932261
0.0925
0.0917842
0.0910786
0.0903764
0.0896847
0.0889963
0.0883169
0.087639
0.0869703
0.0863036
0.0856428
0.0849852
0.0843315
0.0836823
0.0830383
0.0823963
0.0817583
0.0811233
0.0804909
0.0798634
0.0792372
0.0786158
0.0779951
0.0773788
0.076764
0.0761535
0.0755438
0.0749384
0.0743342
0.0737333
0.0731342
0.0725381
0.0719439
0.0713525
0.0707629
0.0701755
0.0695908
0.0690078
0.0684273
0.0678486
0.0672721
0.0666976
0.0661246
0.0655543
0.0649854
0.0644189
0.0638537
0.0632908
0.0627294
0.0621699
0.061612
0.0610562
0.0605018
0.0599493
0.0593984
0.0588492
0.0583016
0.0577554
0.057211
0.0566681
0.0561268
0.0555869
0.0550487
0.0545117
0.0539763
0.0534424
0.0529097
0.0523786
0.0518488
0.0513205
0.0507934
0.0502677
0.0497433
0.0492202
0.0486984
0.0481777
0.0476585
0.0471404
0.0466237
0.0461081
0.0455938
0.0450805
0.0445685
0.0440576
0.0435479
0.0430393
0.0425318
0.0420255
0.0415202
0.0410161
0.0405129
0.040011
0.03951
0.0390102
0.0385112
0.0380135
0.0375166
0.0370208
0.0365259
0.0360322
0.0355393
0.0350474
0.0345564
0.0340665
0.0335775
0.0330894
0.0326022
0.032116
0.0316306
0.0311462
0.0306627
0.03018
0.0296983
0.0292174
0.0287374
0.0282582
0.0277799
0.0273023
0.0268257
0.0263498
0.0258749
0.0254006
0.0249273
0.0244547
0.023983
0.0235121
0.0230421
0.0225729
0.0221045
0.021637
0.0211703
0.0207044
0.0202394
0.0197751
0.0193116
0.0188488
0.0183867
0.0179253
0.0174645
0.0170043
0.0165447
0.0160855
0.015627
0.0151688
0.0147112
0.0142539
0.0137972
0.0133407
0.0128849
0.0124294
0.0119746
0.0115202
0.0110667
0.0106136
0.0101617
0.00971009
0.00925999
0.00881019
0.00836236
0.00791458
0.0074695
0.00702386
0.00658208
0.0061388
0.00570111
0.00526007
0.00482722
0.00438847
0.00396172
0.00352484
0.0031055
0.00267063
0.00226
0.00182703
0.00142743
0.000990824
0.000615887
0.000113818
0.191412
0.140066
0.120831
0.115662
0.111576
0.108917
0.107244
0.105874
0.104697
0.103579
0.102528
0.101531
0.100571
0.099671
0.0988033
0.0979671
0.0971546
0.0963508
0.0955657
0.0948041
0.0940491
0.0933053
0.0925753
0.0918559
0.091146
0.0904402
0.0897456
0.0890541
0.0883721
0.0876915
0.0870203
0.0863513
0.0856886
0.0850289
0.0843732
0.0837224
0.0830768
0.0824332
0.0817938
0.0811574
0.0805237
0.0798951
0.0792677
0.0786452
0.0780235
0.0774062
0.0767905
0.0761791
0.0755685
0.0749624
0.0743574
0.0737557
0.0731561
0.0725593
0.0719645
0.0713725
0.0707823
0.0701943
0.0696091
0.0690257
0.0684447
0.0678655
0.0672886
0.0667136
0.0661403
0.0655696
0.0650003
0.0644335
0.063868
0.0633047
0.0627429
0.0621831
0.061625
0.0610688
0.0605142
0.0599615
0.0594103
0.0588608
0.058313
0.0577665
0.0572219
0.0566787
0.0561373
0.0555972
0.0550587
0.0545216
0.053986
0.0534519
0.052919
0.0523878
0.0518578
0.0513293
0.050802
0.0502762
0.0497516
0.0492284
0.0487064
0.0481856
0.0476663
0.0471481
0.0466312
0.0461155
0.045601
0.0450876
0.0445755
0.0440645
0.0435547
0.043046
0.0425384
0.042032
0.0415266
0.0410224
0.0405191
0.0400171
0.039516
0.0390161
0.0385171
0.0380192
0.0375222
0.0370264
0.0365314
0.0360376
0.0355446
0.0350527
0.0345616
0.0340716
0.0335825
0.0330944
0.0326071
0.0321208
0.0316354
0.0311509
0.0306673
0.0301846
0.0297028
0.0292218
0.0287418
0.0282625
0.0277842
0.0273066
0.0268299
0.026354
0.0258789
0.0254046
0.0249312
0.0244586
0.0239869
0.0235159
0.0230458
0.0225766
0.0221082
0.0216406
0.0211739
0.020708
0.0202429
0.0197785
0.019315
0.0188522
0.0183901
0.0179286
0.0174678
0.0170075
0.0165479
0.0160887
0.0156302
0.0151719
0.0147143
0.014257
0.0138003
0.0133438
0.0128879
0.0124324
0.0119776
0.0115232
0.0110696
0.0106166
0.0101646
0.00971297
0.00926284
0.00881301
0.00836516
0.00791734
0.00747224
0.00702654
0.00658475
0.00614141
0.00570371
0.00526262
0.00482975
0.00439095
0.00396418
0.00352727
0.00310789
0.00267298
0.00226234
0.00182925
0.00142985
0.000993125
0.000617978
0.00011301
0.185422
0.139935
0.121553
0.116335
0.112121
0.109284
0.107468
0.106028
0.104818
0.103682
0.102628
0.101629
0.100673
0.0997759
0.098906
0.0980682
0.0972538
0.096446
0.0956576
0.0948926
0.0941334
0.0933859
0.0926526
0.0919302
0.0912163
0.0905074
0.0898101
0.0891159
0.0884314
0.087748
0.0870743
0.0864034
0.0857386
0.0850768
0.0844192
0.0837666
0.0831193
0.082474
0.0818332
0.0811953
0.0805603
0.0799304
0.0793017
0.0786782
0.0780552
0.0774369
0.0768202
0.0762078
0.0755964
0.0749895
0.0743836
0.0737811
0.0731807
0.0725833
0.0719878
0.0713951
0.0708043
0.0702157
0.06963
0.069046
0.0684645
0.0678848
0.0673073
0.0667319
0.0661581
0.0655869
0.0650173
0.06445
0.0638841
0.0633205
0.0627584
0.0621982
0.0616397
0.0610833
0.0605283
0.0599753
0.0594238
0.058874
0.0583259
0.0577792
0.0572344
0.0566909
0.0561492
0.0556089
0.0550702
0.0545329
0.0539971
0.0534627
0.0529297
0.0523982
0.051868
0.0513393
0.0508119
0.0502859
0.0497612
0.0492377
0.0487156
0.0481947
0.0476752
0.0471568
0.0466398
0.0461239
0.0456093
0.0450958
0.0445836
0.0440724
0.0435625
0.0430537
0.0425459
0.0420394
0.0415339
0.0410296
0.0405262
0.0400241
0.0395229
0.0390229
0.0385237
0.0380258
0.0375287
0.0370327
0.0365377
0.0360437
0.0355507
0.0350587
0.0345675
0.0340775
0.0335883
0.0331
0.0326127
0.0321263
0.0316408
0.0311562
0.0306726
0.0301898
0.029708
0.0292269
0.0287468
0.0282675
0.0277891
0.0273114
0.0268347
0.0263587
0.0258836
0.0254092
0.0249358
0.0244631
0.0239913
0.0235203
0.0230501
0.0225808
0.0221124
0.0216447
0.021178
0.020712
0.0202469
0.0197825
0.0193189
0.018856
0.0183939
0.0179323
0.0174715
0.0170112
0.0165516
0.0160924
0.0156338
0.0151755
0.0147179
0.0142605
0.0138038
0.0133473
0.0128914
0.0124358
0.011981
0.0115266
0.011073
0.0106199
0.0101679
0.00971621
0.00926605
0.00881617
0.0083683
0.00792043
0.00747529
0.00702954
0.00658772
0.00614432
0.00570659
0.00526544
0.00483254
0.0043937
0.00396687
0.00352993
0.00311049
0.00267552
0.00226488
0.00183162
0.00143245
0.000995564
0.000620021
0.00011187
0.179992
0.139662
0.122379
0.116782
0.112514
0.10973
0.107745
0.106199
0.104944
0.103781
0.102714
0.101704
0.100747
0.0998521
0.0989828
0.0981481
0.097337
0.096529
0.0957407
0.0949752
0.0942134
0.0934636
0.0927281
0.0920038
0.0912868
0.0905752
0.0898757
0.0891793
0.0884928
0.0878068
0.0871308
0.086458
0.0857914
0.0851276
0.0844681
0.0838138
0.0831648
0.082518
0.0818758
0.0812362
0.0805999
0.0799688
0.0793388
0.0787141
0.0780899
0.0774705
0.0768528
0.0762395
0.0756271
0.0750193
0.0744124
0.0738091
0.073208
0.0726098
0.0720136
0.0714202
0.0708287
0.0702395
0.0696531
0.0690685
0.0684864
0.0679062
0.0673282
0.0667522
0.066178
0.0656063
0.0650362
0.0644685
0.0639022
0.0633382
0.0627756
0.0622151
0.0616562
0.0610994
0.0605442
0.0599908
0.059439
0.0588889
0.0583405
0.0577934
0.0572483
0.0567046
0.0561627
0.055622
0.0550831
0.0545455
0.0540095
0.0534749
0.0529416
0.05241
0.0518796
0.0513507
0.050823
0.0502968
0.0497719
0.0492483
0.048726
0.0482048
0.0476852
0.0471666
0.0466495
0.0461334
0.0456187
0.045105
0.0445926
0.0440814
0.0435713
0.0430623
0.0425544
0.0420478
0.0415421
0.0410377
0.0405342
0.040032
0.0395306
0.0390305
0.0385312
0.0380332
0.037536
0.0370399
0.0365448
0.0360507
0.0355576
0.0350655
0.0345742
0.0340841
0.0335948
0.0331065
0.032619
0.0321325
0.031647
0.0311623
0.0306786
0.0301957
0.0297138
0.0292327
0.0287525
0.0282731
0.0277946
0.0273169
0.02684
0.026364
0.0258888
0.0254144
0.0249409
0.0244682
0.0239963
0.0235252
0.023055
0.0225856
0.0221171
0.0216494
0.0211826
0.0207166
0.0202514
0.0197869
0.0193233
0.0188604
0.0183982
0.0179366
0.0174757
0.0170154
0.0165557
0.0160964
0.0156378
0.0151795
0.0147219
0.0142645
0.0138077
0.0133512
0.0128952
0.0124397
0.0119848
0.0115304
0.0110767
0.0106236
0.0101715
0.00971982
0.00926963
0.0088197
0.00837179
0.00792386
0.00747868
0.00703287
0.00659101
0.00614754
0.00570976
0.00526856
0.00483561
0.00439671
0.00396981
0.00353283
0.00311331
0.00267828
0.00226762
0.00183413
0.00143524
0.000998133
0.00062203
0.000110436
0.1749
0.139298
0.123086
0.117328
0.112812
0.110038
0.108063
0.106411
0.105086
0.103888
0.102806
0.101779
0.100813
0.0999137
0.0990385
0.0982043
0.0973967
0.0965907
0.0958061
0.0950439
0.0942828
0.093533
0.0927975
0.0920729
0.0913539
0.0906405
0.0899396
0.0892417
0.0885537
0.0878655
0.0871878
0.0865134
0.0858453
0.0851797
0.0845185
0.0838627
0.0832122
0.0825639
0.0819204
0.0812793
0.0806417
0.0800095
0.0793781
0.0787523
0.078127
0.0775064
0.0768878
0.0762734
0.0756601
0.0750514
0.0744436
0.0738395
0.0732375
0.0726386
0.0720416
0.0714475
0.0708553
0.0702653
0.0696783
0.0690931
0.0685104
0.0679296
0.0673511
0.0667745
0.0661997
0.0656277
0.065057
0.0644889
0.0639221
0.0633577
0.0627947
0.0622337
0.0616744
0.0611173
0.0605616
0.0600079
0.0594557
0.0589053
0.0583565
0.0578092
0.0572638
0.0567197
0.0561775
0.0556366
0.0550974
0.0545595
0.0540233
0.0534884
0.0529549
0.052423
0.0518923
0.0513632
0.0508354
0.050309
0.0497838
0.04926
0.0487375
0.0482162
0.0476963
0.0471776
0.0466603
0.046144
0.0456291
0.0451153
0.0446027
0.0440913
0.043581
0.0430719
0.0425639
0.0420571
0.0415513
0.0410468
0.0405431
0.0400408
0.0395393
0.039039
0.0385396
0.0380415
0.0375442
0.037048
0.0365527
0.0360586
0.0355653
0.0350731
0.0345817
0.0340915
0.033602
0.0331136
0.0326261
0.0321395
0.0316539
0.0311691
0.0306853
0.0302023
0.0297203
0.0292391
0.0287589
0.0282794
0.0278008
0.027323
0.0268461
0.0263699
0.0258947
0.0254202
0.0249466
0.0244738
0.0240019
0.0235307
0.0230605
0.022591
0.0221225
0.0216547
0.0211878
0.0207217
0.0202564
0.0197919
0.0193282
0.0188652
0.018403
0.0179414
0.0174805
0.0170201
0.0165603
0.016101
0.0156424
0.015184
0.0147263
0.0142689
0.0138121
0.0133555
0.0128995
0.0124439
0.011989
0.0115346
0.0110809
0.0106277
0.0101756
0.00972383
0.00927358
0.00882359
0.00837564
0.00792765
0.00748242
0.00703655
0.00659462
0.00615108
0.00571324
0.00527197
0.00483896
0.00440001
0.00397301
0.00353599
0.00311636
0.00268126
0.00227056
0.0018368
0.00143819
0.00100082
0.000624025
0.00010874
0.170069
0.138875
0.12365
0.117825
0.113204
0.11027
0.108282
0.106631
0.105264
0.104012
0.102906
0.101859
0.100884
0.0999778
0.0990919
0.0982531
0.0974437
0.0966349
0.0958522
0.0950934
0.0943345
0.0935872
0.0928544
0.0921322
0.0914131
0.0906996
0.0899986
0.0893002
0.0886115
0.0879219
0.087243
0.0865676
0.0858985
0.0852314
0.0845688
0.0839119
0.0832601
0.0826106
0.0819661
0.0813234
0.0806848
0.0800515
0.0794188
0.0787921
0.0781657
0.0775441
0.0769245
0.0763092
0.075695
0.0750854
0.0744766
0.0738717
0.0732689
0.0726692
0.0720714
0.0714767
0.0708837
0.070293
0.0697054
0.0691195
0.0685363
0.0679548
0.0673758
0.0667986
0.0662233
0.0656507
0.0650796
0.064511
0.0639437
0.0633788
0.0628153
0.0622539
0.0616943
0.0611367
0.0605806
0.0600265
0.059474
0.0589232
0.0583741
0.0578264
0.0572806
0.0567363
0.0561938
0.0556526
0.0551131
0.0545749
0.0540384
0.0535032
0.0529694
0.0524373
0.0519064
0.0513771
0.0508489
0.0503223
0.0497969
0.0492729
0.0487502
0.0482286
0.0477086
0.0471897
0.0466721
0.0461557
0.0456406
0.0451266
0.0446139
0.0441023
0.0435918
0.0430826
0.0425743
0.0420674
0.0415615
0.0410568
0.040553
0.0400505
0.0395488
0.0390485
0.0385489
0.0380506
0.0375532
0.0370569
0.0365615
0.0360672
0.0355738
0.0350815
0.03459
0.0340997
0.0336101
0.0331216
0.032634
0.0321473
0.0316615
0.0311767
0.0306928
0.0302097
0.0297276
0.0292463
0.0287659
0.0282863
0.0278077
0.0273298
0.0268528
0.0263766
0.0259013
0.0254267
0.024953
0.0244801
0.0240081
0.0235369
0.0230666
0.022597
0.0221284
0.0216605
0.0211936
0.0207274
0.0202621
0.0197975
0.0193337
0.0188707
0.0184084
0.0179467
0.0174857
0.0170253
0.0165655
0.0161061
0.0156474
0.015189
0.0147312
0.0142738
0.0138169
0.0133603
0.0129043
0.0124486
0.0119937
0.0115392
0.0110854
0.0106322
0.01018
0.00972824
0.00927793
0.00882788
0.00837987
0.00793182
0.00748652
0.00704058
0.00659858
0.00615497
0.00571704
0.00527572
0.00484261
0.00440361
0.00397648
0.00353942
0.00311967
0.00268447
0.00227371
0.00183965
0.00144129
0.00100362
0.000626042
0.000106819
0.165497
0.138362
0.124091
0.118253
0.113576
0.110577
0.108453
0.106811
0.105411
0.10415
0.103022
0.101948
0.100959
0.100047
0.0991492
0.0983054
0.0974919
0.0966767
0.095892
0.0951326
0.0943723
0.0936255
0.0928952
0.0921765
0.0914588
0.0907472
0.0900481
0.0893511
0.0886632
0.0879731
0.0872941
0.0866184
0.085949
0.0852808
0.0846172
0.0839597
0.083307
0.0826565
0.0820113
0.0813673
0.0807279
0.0800938
0.0794601
0.0788326
0.078205
0.0775825
0.0769621
0.0763461
0.075731
0.0751206
0.0745108
0.0739052
0.0733017
0.0727013
0.0721027
0.0715074
0.0709136
0.0703222
0.069734
0.0691475
0.0685637
0.0679816
0.0674021
0.0668243
0.0662484
0.0656753
0.0651036
0.0645346
0.0639668
0.0634015
0.0628375
0.0622756
0.0617155
0.0611576
0.0606011
0.0600466
0.0594937
0.0589426
0.0583931
0.057845
0.0572989
0.0567543
0.0562114
0.0556699
0.0551301
0.0545916
0.0540548
0.0535193
0.0529853
0.0524528
0.0519217
0.0513921
0.0508637
0.0503369
0.0498112
0.049287
0.048764
0.0482423
0.047722
0.0472028
0.0466851
0.0461685
0.0456532
0.045139
0.0446261
0.0441143
0.0436037
0.0430942
0.0425858
0.0420788
0.0415726
0.0410678
0.0405638
0.0400611
0.0395593
0.0390588
0.0385591
0.0380607
0.0375631
0.0370667
0.0365712
0.0360767
0.0355832
0.0350908
0.0345992
0.0341087
0.033619
0.0331304
0.0326426
0.0321558
0.03167
0.031185
0.030701
0.0302178
0.0297356
0.0292542
0.0287737
0.028294
0.0278153
0.0273373
0.0268602
0.0263839
0.0259085
0.0254338
0.0249601
0.0244871
0.024015
0.0235437
0.0230733
0.0226037
0.0221349
0.021667
0.0212
0.0207337
0.0202683
0.0198036
0.0193398
0.0188767
0.0184143
0.0179525
0.0174915
0.017031
0.0165711
0.0161117
0.0156529
0.0151945
0.0147367
0.0142791
0.0138222
0.0133656
0.0129095
0.0124538
0.0119988
0.0115442
0.0110905
0.0106371
0.0101849
0.00973308
0.0092827
0.00883259
0.00838451
0.00793639
0.00749102
0.00704501
0.00660292
0.00615923
0.0057212
0.0052798
0.00484659
0.00440752
0.00398025
0.00354315
0.00312323
0.00268793
0.00227708
0.00184272
0.00144455
0.00100652
0.000628125
0.000104715
0.161186
0.137734
0.124415
0.118616
0.113916
0.110872
0.108678
0.106986
0.105515
0.104275
0.103114
0.102045
0.101044
0.100123
0.0992093
0.0983599
0.0975441
0.0967214
0.095934
0.0951729
0.0944085
0.093659
0.0929282
0.0922104
0.091492
0.0907814
0.0900844
0.0893898
0.0887042
0.088015
0.0873374
0.0866628
0.0859943
0.0853258
0.0846618
0.0840043
0.0833514
0.0827003
0.0820548
0.0814097
0.0807698
0.0801352
0.0795007
0.0788726
0.0782441
0.0776209
0.0769999
0.0763831
0.0757673
0.0751563
0.0745457
0.0739393
0.0733352
0.0727342
0.0721349
0.071539
0.0709446
0.0703525
0.0697637
0.0691767
0.0685923
0.0680096
0.0674296
0.0668511
0.0662747
0.0657012
0.065129
0.0645594
0.0639912
0.0634255
0.062861
0.0622986
0.0617381
0.0611798
0.0606229
0.060068
0.0595147
0.0589632
0.0584133
0.0578648
0.0573184
0.0567735
0.0562303
0.0556884
0.0551483
0.0546095
0.0540724
0.0535367
0.0530023
0.0524696
0.0519382
0.0514083
0.0508797
0.0503526
0.0498267
0.0493022
0.048779
0.048257
0.0477365
0.0472171
0.0466992
0.0461823
0.0456668
0.0451524
0.0446393
0.0441273
0.0436165
0.0431069
0.0425983
0.042091
0.0415847
0.0410797
0.0405756
0.0400728
0.0395708
0.0390701
0.0385703
0.0380717
0.0375739
0.0370773
0.0365817
0.0360871
0.0355935
0.0351009
0.0346092
0.0341185
0.0336287
0.03314
0.0326521
0.0321652
0.0316792
0.0311941
0.03071
0.0302267
0.0297444
0.0292628
0.0287823
0.0283025
0.0278236
0.0273455
0.0268684
0.0263919
0.0259164
0.0254417
0.0249678
0.0244947
0.0240226
0.0235512
0.0230807
0.0226109
0.0221421
0.0216741
0.021207
0.0207407
0.0202752
0.0198104
0.0193465
0.0188833
0.0184208
0.017959
0.0174979
0.0170373
0.0165774
0.0161179
0.015659
0.0152005
0.0147426
0.014285
0.0138281
0.0133713
0.0129152
0.0124595
0.0120044
0.0115498
0.0110959
0.0106426
0.0101903
0.00973838
0.00928792
0.00883774
0.00838958
0.00794139
0.00749593
0.00704985
0.00660766
0.0061639
0.00572574
0.00528428
0.00485092
0.00441178
0.00398435
0.0035472
0.00312708
0.00269167
0.00228071
0.00184603
0.00144796
0.00100957
0.000630293
0.000102462
0.157135
0.136988
0.124621
0.118912
0.114225
0.111145
0.1089
0.107155
0.105653
0.104389
0.103186
0.102136
0.101134
0.100181
0.0992793
0.0984201
0.097599
0.0967677
0.0959773
0.095216
0.0944471
0.0936939
0.0929621
0.0922438
0.0915221
0.0908101
0.0901131
0.0894191
0.0887345
0.0880456
0.0873698
0.086697
0.0860306
0.0853629
0.0846995
0.0840432
0.0833909
0.08274
0.0820948
0.0814491
0.0808091
0.0801743
0.0795395
0.0789112
0.0782819
0.0776581
0.0770368
0.0764195
0.0758032
0.0751918
0.0745803
0.0739734
0.0733688
0.0727673
0.0721674
0.0715711
0.070976
0.0703832
0.069794
0.0692065
0.0686216
0.0680383
0.0674579
0.0668789
0.0663019
0.065728
0.0651553
0.0645853
0.0640166
0.0634505
0.0628855
0.0623227
0.0617618
0.0612031
0.0606458
0.0600906
0.0595368
0.058985
0.0584347
0.0578858
0.0573391
0.0567938
0.0562503
0.0557081
0.0551677
0.0546286
0.0540912
0.0535551
0.0530204
0.0524874
0.0519557
0.0514256
0.0508967
0.0503694
0.0498432
0.0493185
0.048795
0.0482727
0.047752
0.0472324
0.0467143
0.0461972
0.0456815
0.0451668
0.0446536
0.0441413
0.0436304
0.0431205
0.0426117
0.0421043
0.0415978
0.0410926
0.0405883
0.0400853
0.0395832
0.0390824
0.0385823
0.0380836
0.0375857
0.0370889
0.0365931
0.0360984
0.0356046
0.0351119
0.03462
0.0341292
0.0336393
0.0331504
0.0326624
0.0321754
0.0316892
0.031204
0.0307198
0.0302363
0.0297539
0.0292723
0.0287916
0.0283117
0.0278327
0.0273545
0.0268772
0.0264007
0.0259251
0.0254502
0.0249763
0.0245031
0.0240308
0.0235593
0.0230887
0.0226189
0.02215
0.0216819
0.0212147
0.0207482
0.0202827
0.0198178
0.0193538
0.0188905
0.0184279
0.017966
0.0175048
0.0170442
0.0165841
0.0161246
0.0156657
0.0152071
0.0147491
0.0142915
0.0138344
0.0133776
0.0129215
0.0124656
0.0120105
0.0115558
0.0111019
0.0106485
0.0101961
0.00974416
0.00929362
0.00884336
0.00839511
0.00794684
0.0075013
0.00705513
0.00661283
0.006169
0.0057307
0.00528916
0.00485563
0.00441641
0.0039888
0.00355161
0.00313126
0.00269574
0.00228459
0.00184958
0.00145153
0.00101279
0.000632553
0.000100105
0.153339
0.136133
0.124713
0.11914
0.114502
0.111398
0.109108
0.107321
0.105792
0.104499
0.103286
0.10222
0.101209
0.100231
0.0993504
0.0984829
0.0976395
0.0968206
0.0960258
0.0952614
0.0944874
0.0937295
0.092997
0.0922795
0.0915536
0.0908394
0.0901416
0.0894471
0.0887617
0.088071
0.0873952
0.0867231
0.086058
0.0853906
0.0847279
0.0840735
0.0834225
0.0827726
0.0821287
0.081483
0.0808438
0.0802095
0.0795748
0.0789467
0.078317
0.0776931
0.0770717
0.0764542
0.0758375
0.075226
0.0746138
0.0740066
0.0734017
0.0727998
0.0721995
0.0716029
0.0710071
0.0704139
0.0698243
0.0692363
0.0686511
0.0680673
0.0674866
0.066907
0.0663296
0.0657553
0.0651822
0.0646118
0.0640426
0.0634762
0.0629108
0.0623475
0.0617862
0.0612272
0.0606695
0.060114
0.0595598
0.0590077
0.058457
0.0579077
0.0573607
0.0568151
0.0562712
0.0557287
0.055188
0.0546486
0.0541109
0.0535745
0.0530395
0.0525063
0.0519743
0.0514439
0.0509147
0.0503871
0.0498607
0.0493357
0.048812
0.0482895
0.0477685
0.0472487
0.0467303
0.046213
0.0456971
0.0451822
0.0446688
0.0441563
0.0436452
0.0431351
0.0426261
0.0421185
0.0416118
0.0411064
0.0406019
0.0400988
0.0395964
0.0390955
0.0385953
0.0380964
0.0375983
0.0371013
0.0366054
0.0361105
0.0356166
0.0351237
0.0346317
0.0341408
0.0336507
0.0331617
0.0326735
0.0321864
0.0317001
0.0312147
0.0307303
0.0302468
0.0297642
0.0292825
0.0288017
0.0283216
0.0278426
0.0273642
0.0268869
0.0264102
0.0259345
0.0254595
0.0249854
0.0245122
0.0240398
0.0235682
0.0230975
0.0226276
0.0221586
0.0216903
0.0212231
0.0207565
0.0202908
0.0198259
0.0193618
0.0188984
0.0184357
0.0179737
0.0175124
0.0170516
0.0165915
0.0161319
0.0156729
0.0152142
0.0147562
0.0142984
0.0138413
0.0133845
0.0129282
0.0124723
0.0120172
0.0115624
0.0111084
0.0106549
0.0102025
0.00975044
0.00929981
0.00884948
0.00840113
0.00795279
0.00750714
0.00706089
0.00661846
0.00617456
0.0057361
0.00529448
0.00486077
0.00442147
0.00399364
0.0035564
0.0031358
0.00270015
0.00228877
0.00185343
0.00145531
0.00101619
0.000634911
9.77509e-05
0.149792
0.135182
0.124692
0.119298
0.114741
0.111628
0.109304
0.107482
0.105927
0.10461
0.103387
0.102303
0.101282
0.100303
0.0994103
0.0985373
0.0976761
0.0968751
0.0960769
0.0952944
0.0945272
0.0937727
0.0930355
0.0923169
0.0915865
0.0908694
0.0901708
0.0894762
0.0887901
0.0880965
0.0874201
0.0867476
0.0860824
0.0854136
0.0847503
0.0840969
0.0834465
0.0827974
0.0821548
0.0815092
0.0808714
0.0802382
0.0796044
0.0789773
0.0783476
0.077724
0.0771032
0.0764858
0.0758692
0.0752578
0.0746452
0.0740379
0.073433
0.0728309
0.0722303
0.0716336
0.0710373
0.0704438
0.0698539
0.0692657
0.0686801
0.068096
0.067515
0.0669349
0.0663571
0.0657826
0.0652091
0.0646384
0.0640689
0.0635022
0.0629364
0.0623726
0.0618111
0.0612518
0.0606937
0.0601379
0.0595833
0.059031
0.0584799
0.0579303
0.0573829
0.056837
0.0562929
0.0557501
0.0552091
0.0546693
0.0541315
0.0535947
0.0530594
0.0525259
0.0519937
0.0514631
0.0509336
0.0504058
0.0498791
0.0493539
0.0488299
0.0483071
0.0477859
0.0472659
0.0467473
0.0462297
0.0457136
0.0451985
0.0446849
0.0441722
0.0436608
0.0431505
0.0426413
0.0421336
0.0416267
0.0411211
0.0406164
0.0401131
0.0396106
0.0391094
0.038609
0.03811
0.0376117
0.0371146
0.0366185
0.0361235
0.0356294
0.0351364
0.0346442
0.0341531
0.0336629
0.0331738
0.0326854
0.0321981
0.0317117
0.0312262
0.0307417
0.030258
0.0297754
0.0292934
0.0288125
0.0283324
0.0278532
0.0273747
0.0268972
0.0264204
0.0259446
0.0254695
0.0249953
0.024522
0.0240495
0.0235778
0.023107