/*--------------------------------*- C++ -*----------------------------------*\
  =========                 |
  \\      /  F ield         | OpenFOAM: The Open Source CFD Toolbox
   \\    /   O peration     | Website:  https://openfoam.org
    \\  /    A nd           | Version:  12
     \\/     M anipulation  |
\*---------------------------------------------------------------------------*/
FoamFile
{
    format      ascii;
    class       volScalarField;
    location    "600";
    object      epsilon;
}
// * * * * * * * * * * * * * * * * * * * * * * * * * * * * * * * * * * * * * //

dimensions      [0 2 -3 0 0 0 0];

internalField   nonuniform List<scalar> 
20000
(
0.0755145
0.028365
0.0314172
0.0419257
0.0488654
0.0543262
0.0597488
0.0655476
0.0703483
0.0747442
0.0777075
0.0809313
0.0829929
0.085049
0.0868041
0.0884143
0.0896379
0.0906932
0.0915305
0.0922946
0.0928715
0.093356
0.0937336
0.0940333
0.0942858
0.0944523
0.0945739
0.0946479
0.0946664
0.0946558
0.0946239
0.0945564
0.0944628
0.0943555
0.0942239
0.0940791
0.0939268
0.0937607
0.0935786
0.0933963
0.0932015
0.0930055
0.0928014
0.0925944
0.0923852
0.0921723
0.0919548
0.0917384
0.0915178
0.0912996
0.0910794
0.0908613
0.0906401
0.0904212
0.0902037
0.089987
0.0897711
0.0895566
0.0893439
0.0891328
0.0889231
0.0887152
0.0885087
0.088305
0.0881016
0.0879017
0.0877032
0.0875074
0.0873131
0.0871213
0.0869312
0.0867435
0.0865577
0.0863742
0.0861929
0.0860137
0.0858366
0.0856618
0.085489
0.0853182
0.0851499
0.0849834
0.0848191
0.0846567
0.0844964
0.0843382
0.0841819
0.0840277
0.0838753
0.0837251
0.0835765
0.0834299
0.0832851
0.0831422
0.0830011
0.0828618
0.0827243
0.0825884
0.0824545
0.0823221
0.0821915
0.0820625
0.0819352
0.0818095
0.0816854
0.0815629
0.0814418
0.0813225
0.0812044
0.0810881
0.080973
0.0808596
0.0807474
0.0806369
0.0805275
0.0804197
0.0803131
0.080208
0.0801041
0.0800016
0.0799002
0.0798002
0.0797014
0.0796039
0.0795075
0.0794124
0.0793185
0.0792257
0.0791341
0.0790436
0.0789543
0.0788659
0.0787788
0.0786926
0.0786077
0.0785236
0.0784407
0.0783587
0.0782778
0.0781978
0.0781189
0.0780409
0.0779639
0.0778877
0.0778126
0.0777383
0.077665
0.0775924
0.0775209
0.0774501
0.0773802
0.0773112
0.077243
0.0771757
0.077109
0.0770433
0.0769784
0.0769143
0.076851
0.0767884
0.0767267
0.0766658
0.0766057
0.0765462
0.0764875
0.0764296
0.0763723
0.0763157
0.0762597
0.0762045
0.0761498
0.0760956
0.0760417
0.0759882
0.0759351
0.0758827
0.0758307
0.075779
0.0757278
0.0756769
0.0756266
0.0755762
0.0755272
0.0754778
0.0754308
0.0753818
0.0753372
0.0752881
0.0752473
0.0751972
0.0751622
0.0751083
0.0750811
0.0750225
0.0749998
0.0749424
0.0749199
0.0748615
0.0748437
0.0747511
0.0279446
0.0395252
0.0599277
0.0772834
0.0832148
0.0856196
0.0875488
0.0899358
0.0913029
0.0923841
0.0922722
0.0924473
0.0920221
0.0915963
0.0911155
0.0906811
0.0900721
0.0894547
0.0887703
0.0881311
0.0874427
0.0867664
0.0860852
0.0854101
0.0847644
0.0841118
0.083475
0.0828512
0.0822294
0.0816256
0.0810403
0.0804637
0.0798977
0.0793503
0.0788113
0.0782869
0.0777774
0.0772806
0.0767897
0.0763174
0.0758522
0.0754014
0.0749595
0.0745288
0.074109
0.0736989
0.0732963
0.072905
0.0725205
0.0721466
0.0717804
0.0714238
0.0710729
0.0707306
0.0703964
0.0700694
0.0697492
0.069436
0.0691296
0.0688297
0.0685358
0.0682483
0.0679661
0.0676905
0.0674193
0.0671544
0.0668944
0.06664
0.0663901
0.0661454
0.0659051
0.0656696
0.0654384
0.0652115
0.064989
0.0647705
0.0645561
0.0643456
0.064139
0.063936
0.0637368
0.063541
0.0633487
0.0631598
0.062974
0.0627917
0.0626123
0.0624361
0.0622628
0.0620925
0.061925
0.0617602
0.0615982
0.0614388
0.061282
0.0611278
0.060976
0.0608266
0.0606798
0.0605351
0.0603928
0.0602526
0.0601147
0.0599789
0.0598451
0.0597135
0.0595838
0.0594562
0.0593303
0.0592065
0.0590844
0.0589643
0.0588458
0.0587291
0.0586141
0.0585008
0.0583891
0.0582791
0.0581706
0.0580638
0.0579583
0.0578545
0.057752
0.0576511
0.0575515
0.0574534
0.0573566
0.0572611
0.057167
0.0570742
0.0569827
0.0568923
0.0568033
0.0567154
0.0566288
0.0565432
0.0564589
0.0563757
0.0562936
0.0562126
0.0561327
0.0560538
0.055976
0.0558991
0.0558234
0.0557485
0.0556747
0.0556018
0.0555299
0.0554589
0.0553888
0.0553196
0.0552513
0.0551839
0.0551172
0.0550515
0.0549867
0.0549227
0.0548594
0.054797
0.0547354
0.0546746
0.0546147
0.0545554
0.0544969
0.0544391
0.0543821
0.0543257
0.05427
0.054215
0.0541606
0.0541068
0.0540534
0.0540004
0.053948
0.0538961
0.0538449
0.0537937
0.0537434
0.0536929
0.0536437
0.0535937
0.0535459
0.0534964
0.0534505
0.0534011
0.0533574
0.0533075
0.0532672
0.0532161
0.0531803
0.0531262
0.0530961
0.0530386
0.0530114
0.0529545
0.0529273
0.0528684
0.0528441
0.0527675
0.00616082
0.0183349
0.032115
0.0491329
0.0621325
0.0722527
0.0795101
0.0850436
0.0882682
0.090297
0.0907648
0.0909265
0.0905375
0.0898444
0.0890088
0.0881561
0.0871684
0.0861448
0.085083
0.0840653
0.0830372
0.082036
0.0810548
0.0801002
0.0791885
0.0782974
0.0774359
0.0766065
0.0757981
0.0750217
0.0742748
0.0735518
0.0728514
0.072179
0.0715263
0.0708976
0.07029
0.0697038
0.069132
0.0685832
0.0680492
0.0675338
0.0670335
0.0665484
0.0660786
0.0656225
0.0651786
0.0647484
0.0643293
0.063923
0.0635273
0.0631434
0.0627684
0.0624037
0.062049
0.0617035
0.0613665
0.0610382
0.0607181
0.060406
0.0601011
0.0598039
0.0595132
0.0592299
0.0589525
0.0586819
0.0584173
0.0581588
0.0579058
0.0576585
0.0574163
0.0571796
0.0569477
0.0567207
0.0564985
0.0562808
0.0560676
0.0558587
0.055654
0.0554533
0.0552567
0.0550638
0.0548746
0.0546891
0.054507
0.0543285
0.0541532
0.0539812
0.0538124
0.0536466
0.0534838
0.0533239
0.0531669
0.0530126
0.052861
0.052712
0.0525656
0.0524217
0.0522804
0.0521413
0.0520046
0.0518702
0.0517379
0.0516079
0.05148
0.0513542
0.0512303
0.0511085
0.0509886
0.0508706
0.0507544
0.0506402
0.0505276
0.0504168
0.0503077
0.0502002
0.0500944
0.0499902
0.0498876
0.0497865
0.0496869
0.0495888
0.0494921
0.0493968
0.049303
0.0492105
0.0491193
0.0490294
0.0489409
0.0488536
0.0487675
0.0486827
0.048599
0.0485165
0.0484353
0.048355
0.048276
0.048198
0.0481211
0.0480452
0.0479704
0.0478965
0.0478237
0.0477519
0.0476811
0.0476111
0.0475422
0.0474741
0.0474069
0.0473406
0.0472752
0.0472106
0.0471469
0.047084
0.0470219
0.0469607
0.0469002
0.0468405
0.0467816
0.0467235
0.0466661
0.0466094
0.0465536
0.0464984
0.0464439
0.0463901
0.046337
0.0462844
0.0462326
0.0461814
0.0461308
0.0460807
0.0460311
0.0459819
0.0459332
0.045885
0.0458375
0.04579
0.0457434
0.0456966
0.045651
0.0456048
0.0455604
0.0455148
0.0454719
0.0454266
0.0453855
0.04534
0.0453015
0.0452554
0.0452203
0.0451723
0.0451416
0.0450911
0.0450635
0.0450127
0.0449854
0.0449344
0.0449076
0.0448501
0.00171951
0.00660948
0.0121013
0.0206177
0.0298616
0.0397471
0.0490232
0.0575019
0.0640696
0.069151
0.0723507
0.0746168
0.0758942
0.0765434
0.0766956
0.0765913
0.0762305
0.0756575
0.0749612
0.0742197
0.0734287
0.0726081
0.071777
0.0709435
0.0701276
0.0693214
0.0685286
0.067758
0.0670025
0.0662714
0.0655634
0.0648769
0.0642104
0.0635681
0.0629443
0.0623428
0.0617606
0.0611986
0.0606514
0.0601251
0.0596141
0.0591203
0.0586421
0.0581782
0.0577294
0.0572941
0.0568714
0.0564617
0.0560634
0.0556773
0.055302
0.0549379
0.0545832
0.0542384
0.0539033
0.0535773
0.0532597
0.0529508
0.0526498
0.0523567
0.0520707
0.0517922
0.0515202
0.0512551
0.0509961
0.0507436
0.050497
0.0502562
0.0500209
0.0497909
0.0495661
0.0493464
0.0491316
0.0489214
0.0487158
0.0485145
0.0483176
0.0481248
0.047936
0.0477511
0.04757
0.0473925
0.0472186
0.0470482
0.046881
0.0467172
0.0465565
0.0463989
0.0462443
0.0460926
0.0459437
0.0457976
0.0456541
0.0455133
0.045375
0.0452391
0.0451057
0.0449746
0.0448459
0.0447194
0.0445951
0.0444729
0.0443527
0.0442347
0.0441185
0.0440044
0.043892
0.0437816
0.0436729
0.0435661
0.0434609
0.0433574
0.0432556
0.0431554
0.0430567
0.0429597
0.0428641
0.04277
0.0426773
0.0425861
0.0424962
0.0424077
0.0423205
0.0422347
0.0421501
0.0420667
0.0419847
0.0419037
0.041824
0.0417454
0.041668
0.0415917
0.0415165
0.0414423
0.0413693
0.0412972
0.0412262
0.0411561
0.041087
0.0410189
0.0409517
0.0408855
0.0408202
0.0407557
0.0406922
0.0406294
0.0405676
0.0405066
0.0404464
0.040387
0.0403283
0.0402705
0.0402134
0.0401571
0.0401015
0.0400466
0.0399925
0.0399391
0.0398864
0.0398343
0.039783
0.0397323
0.0396823
0.039633
0.0395842
0.0395361
0.0394886
0.0394416
0.0393953
0.0393495
0.0393043
0.0392595
0.0392152
0.0391713
0.0391279
0.0390849
0.0390424
0.0390002
0.0389586
0.0389171
0.0388763
0.0388354
0.0387957
0.0387555
0.038717
0.0386773
0.0386401
0.0386007
0.0385654
0.0385259
0.0384933
0.0384526
0.0384236
0.0383811
0.0383552
0.0383121
0.0382871
0.0382444
0.0382201
0.0381743
0.000874535
0.00258726
0.00465767
0.00793888
0.0121178
0.0172777
0.0230026
0.0295039
0.0359497
0.0423037
0.0476639
0.0521855
0.0556606
0.0582507
0.0600735
0.0613579
0.0621547
0.0625844
0.0627127
0.0626579
0.0624659
0.062127
0.0617128
0.061232
0.0607207
0.0601827
0.0596189
0.059049
0.0584718
0.0578976
0.0573304
0.0567701
0.0562176
0.0556782
0.0551489
0.0546333
0.0541303
0.0536415
0.0531632
0.0526999
0.0522486
0.0518104
0.0513849
0.0509708
0.0505692
0.0501786
0.0497989
0.0494299
0.049071
0.0487223
0.0483832
0.0480536
0.0477325
0.0474201
0.0471163
0.0468206
0.0465323
0.0462518
0.0459784
0.0457121
0.0454523
0.0451991
0.044952
0.044711
0.0444757
0.0442461
0.044022
0.0438032
0.0435893
0.0433804
0.0431762
0.0429766
0.0427815
0.0425906
0.042404
0.0422213
0.0420426
0.0418677
0.0416963
0.0415286
0.0413644
0.0412036
0.0410459
0.0408915
0.04074
0.0405916
0.0404461
0.0403034
0.0401635
0.0400262
0.0398915
0.0397593
0.0396296
0.0395023
0.0393773
0.0392545
0.039134
0.0390156
0.0388993
0.0387851
0.0386729
0.0385626
0.0384542
0.0383477
0.038243
0.03814
0.0380388
0.0379392
0.0378413
0.037745
0.0376503
0.0375571
0.0374654
0.0373752
0.0372864
0.037199
0.037113
0.0370283
0.036945
0.0368629
0.0367821
0.0367025
0.0366242
0.036547
0.036471
0.0363961
0.0363224
0.0362497
0.0361781
0.0361075
0.036038
0.0359695
0.035902
0.0358354
0.0357698
0.0357052
0.0356414
0.0355786
0.0355166
0.0354555
0.0353953
0.0353359
0.0352773
0.0352195
0.0351626
0.0351064
0.0350509
0.0349963
0.0349423
0.0348891
0.0348366
0.0347848
0.0347337
0.0346832
0.0346334
0.0345843
0.0345359
0.0344881
0.0344409
0.0343943
0.0343484
0.034303
0.0342583
0.0342141
0.0341705
0.0341275
0.034085
0.034043
0.0340016
0.0339607
0.0339202
0.0338802
0.0338406
0.0338014
0.0337627
0.0337243
0.0336864
0.0336489
0.0336117
0.0335749
0.0335385
0.0335023
0.0334668
0.0334314
0.0333968
0.0333621
0.0333286
0.0332944
0.0332624
0.0332284
0.0331986
0.033164
0.0331371
0.0331012
0.0330774
0.0330408
0.0330185
0.0329823
0.0329615
0.0329231
0.00065667
0.00132204
0.00216786
0.00342055
0.00503551
0.00723597
0.00981307
0.0130984
0.0168122
0.0211535
0.0256775
0.0302677
0.0345668
0.0383907
0.0416056
0.0442708
0.0463756
0.048002
0.0492018
0.0500729
0.0506736
0.0510437
0.0512407
0.0512802
0.051232
0.0511001
0.0508837
0.0506225
0.0503183
0.0499855
0.0496368
0.0492695
0.0488907
0.0485079
0.0481207
0.0477338
0.0473491
0.0469682
0.0465896
0.0462176
0.0458514
0.0454916
0.0451394
0.0447938
0.0444562
0.0441256
0.0438026
0.0434869
0.0431785
0.0428776
0.0425838
0.0422973
0.0420173
0.0417442
0.0414778
0.0412179
0.040964
0.0407165
0.0404748
0.040239
0.0400086
0.0397838
0.0395641
0.0393495
0.0391399
0.0389351
0.0387351
0.0385395
0.0383483
0.0381614
0.0379786
0.0377997
0.0376248
0.0374537
0.0372862
0.0371222
0.0369617
0.0368046
0.0366506
0.0364999
0.0363522
0.0362075
0.0360657
0.0359268
0.0357905
0.0356569
0.0355259
0.0353974
0.0352714
0.0351478
0.0350265
0.0349074
0.0347905
0.0346758
0.0345632
0.0344526
0.034344
0.0342373
0.0341325
0.0340296
0.0339284
0.0338291
0.0337314
0.0336354
0.033541
0.0334482
0.0333569
0.0332672
0.033179
0.0330922
0.0330068
0.0329228
0.0328402
0.0327589
0.0326789
0.0326001
0.0325226
0.0324464
0.0323712
0.0322973
0.0322245
0.0321528
0.0320822
0.0320127
0.0319442
0.0318767
0.0318103
0.0317448
0.0316803
0.0316168
0.0315541
0.0314924
0.0314316
0.0313717
0.0313126
0.0312544
0.031197
0.0311404
0.0310846
0.0310296
0.0309753
0.0309218
0.0308691
0.0308171
0.0307658
0.0307152
0.0306653
0.0306161
0.0305675
0.0305196
0.0304724
0.0304257
0.0303798
0.0303344
0.0302896
0.0302454
0.0302018
0.0301588
0.0301163
0.0300744
0.0300331
0.0299923
0.0299521
0.0299124
0.0298732
0.0298345
0.0297963
0.0297585
0.0297213
0.0296845
0.0296481
0.0296122
0.0295767
0.0295415
0.0295067
0.0294724
0.0294384
0.0294048
0.0293714
0.0293386
0.0293059
0.0292737
0.0292418
0.0292105
0.0291794
0.0291488
0.0291187
0.0290887
0.0290598
0.0290303
0.0290031
0.0289733
0.0289487
0.0289181
0.0288962
0.0288649
0.0288451
0.028814
0.0287964
0.0287632
0.00058635
0.000878706
0.00127383
0.001818
0.00247105
0.00337067
0.00442251
0.00582564
0.00748476
0.00959169
0.0120589
0.0149215
0.0180674
0.0213717
0.0246291
0.0277365
0.0305523
0.0330286
0.0351278
0.0368799
0.0383073
0.0394469
0.0403404
0.041016
0.0415203
0.0418827
0.0421157
0.0422523
0.0422999
0.0422828
0.0422223
0.0421058
0.0419547
0.0417778
0.0415759
0.0413575
0.0411278
0.0408864
0.0406362
0.0403814
0.040124
0.0398633
0.0396036
0.039344
0.039086
0.0388297
0.0385759
0.0383252
0.0380777
0.0378339
0.0375942
0.0373585
0.0371268
0.0368992
0.036676
0.0364571
0.0362424
0.0360321
0.035826
0.0356241
0.0354262
0.0352325
0.0350427
0.0348568
0.0346747
0.0344965
0.0343219
0.034151
0.0339836
0.0338195
0.0336589
0.0335015
0.0333473
0.0331963
0.0330483
0.0329032
0.032761
0.0326217
0.0324851
0.0323512
0.0322199
0.0320912
0.0319649
0.031841
0.0317195
0.0316003
0.0314833
0.0313685
0.0312559
0.0311453
0.0310367
0.0309301
0.0308255
0.0307227
0.0306217
0.0305225
0.0304251
0.0303293
0.0302353
0.0301429
0.030052
0.0299627
0.0298749
0.0297886
0.0297037
0.0296203
0.0295382
0.0294574
0.029378
0.0292999
0.0292231
0.0291474
0.029073
0.0289997
0.0289277
0.0288567
0.0287869
0.0287181
0.0286504
0.0285837
0.0285181
0.0284534
0.0283898
0.028327
0.0282653
0.0282044
0.0281445
0.0280854
0.0280272
0.0279698
0.0279133
0.0278576
0.0278027
0.0277486
0.0276953
0.0276427
0.0275908
0.0275397
0.0274894
0.0274397
0.0273907
0.0273424
0.0272948
0.0272478
0.0272014
0.0271557
0.0271107
0.0270662
0.0270223
0.0269791
0.0269364
0.0268942
0.0268527
0.0268117
0.0267712
0.0267313
0.0266919
0.0266531
0.0266147
0.0265769
0.0265395
0.0265027
0.0264663
0.0264304
0.026395
0.0263601
0.0263256
0.0262915
0.0262578
0.0262246
0.0261918
0.0261594
0.0261273
0.0260956
0.0260642
0.0260333
0.0260027
0.0259725
0.0259424
0.025913
0.0258836
0.0258548
0.0258261
0.0257981
0.0257702
0.025743
0.0257158
0.0256894
0.0256632
0.0256373
0.0256127
0.0255868
0.0255643
0.0255379
0.0255179
0.0254909
0.0254733
0.0254461
0.0254313
0.0254022
0.000560629
0.000698523
0.00090375
0.00117619
0.0014787
0.00188178
0.00233215
0.00292301
0.00361866
0.00451287
0.00560024
0.00694972
0.00856537
0.0104656
0.0125945
0.0149163
0.0173261
0.0197389
0.0220486
0.0241963
0.0261328
0.0278411
0.029319
0.0305747
0.0316278
0.0325034
0.033215
0.0337902
0.0342413
0.0345895
0.0348539
0.0350411
0.0351634
0.0352346
0.0352564
0.0352438
0.0352042
0.0351319
0.0350384
0.0349268
0.0348019
0.0346616
0.0345147
0.0343595
0.0341973
0.0340302
0.0338594
0.0336863
0.0335109
0.0333348
0.0331586
0.0329826
0.0328068
0.0326321
0.0324586
0.0322869
0.0321166
0.0319485
0.0317825
0.0316188
0.0314571
0.031298
0.0311411
0.0309867
0.0308348
0.0306853
0.0305384
0.0303939
0.030252
0.0301124
0.0299753
0.0298406
0.0297082
0.0295782
0.0294505
0.0293251
0.0292019
0.0290809
0.028962
0.0288453
0.0287307
0.0286181
0.0285075
0.0283989
0.0282922
0.0281873
0.0280843
0.0279831
0.0278837
0.027786
0.0276899
0.0275956
0.0275028
0.0274116
0.027322
0.0272339
0.0271472
0.0270621
0.0269783
0.026896
0.026815
0.0267353
0.0266569
0.0265798
0.026504
0.0264294
0.0263559
0.0262837
0.0262125
0.0261425
0.0260737
0.0260058
0.0259391
0.0258734
0.0258087
0.0257449
0.0256822
0.0256204
0.0255595
0.0254996
0.0254405
0.0253823
0.025325
0.0252686
0.0252129
0.0251581
0.0251041
0.0250509
0.0249984
0.0249467
0.0248957
0.0248455
0.0247959
0.0247471
0.024699
0.0246515
0.0246047
0.0245586
0.0245131
0.0244682
0.0244239
0.0243803
0.0243372
0.0242948
0.0242529
0.0242115
0.0241708
0.0241306
0.0240909
0.0240517
0.0240131
0.023975
0.0239374
0.0239003
0.0238637
0.0238276
0.0237919
0.0237568
0.023722
0.0236878
0.023654
0.0236206
0.0235877
0.0235552
0.0235231
0.0234915
0.0234602
0.0234294
0.0233989
0.0233688
0.0233391
0.0233098
0.0232808
0.0232521
0.0232237
0.0231958
0.0231681
0.0231409
0.0231138
0.0230873
0.0230607
0.0230349
0.023009
0.022984
0.0229588
0.0229346
0.02291
0.0228866
0.022863
0.0228401
0.0228178
0.0227951
0.0227746
0.0227516
0.0227334
0.0227099
0.0226942
0.0226703
0.0226576
0.0226319
0.000550227
0.000618021
0.000729531
0.00088005
0.00103907
0.00124328
0.00146178
0.00173441
0.00204519
0.00243042
0.00289196
0.00346879
0.00417105
0.00504183
0.00608502
0.00732408
0.00874617
0.0103394
0.0120551
0.0138444
0.0156444
0.0174017
0.0190684
0.0206119
0.0220118
0.0232657
0.0243679
0.025331
0.026159
0.0268672
0.0274671
0.0279703
0.0283864
0.0287289
0.0290036
0.0292216
0.0293918
0.0295172
0.0296049
0.0296597
0.029689
0.0296885
0.0296751
0.0296421
0.0295917
0.0295292
0.0294555
0.0293733
0.0292819
0.0291848
0.029083
0.028976
0.0288651
0.0287513
0.0286352
0.0285175
0.0283982
0.0282782
0.0281579
0.0280373
0.0279166
0.0277962
0.0276763
0.0275571
0.0274387
0.0273211
0.0272047
0.0270894
0.0269753
0.0268624
0.0267508
0.0266406
0.0265319
0.0264245
0.0263185
0.026214
0.026111
0.0260094
0.0259093
0.0258107
0.0257135
0.0256179
0.0255236
0.0254307
0.0253393
0.0252493
0.0251606
0.0250733
0.0249874
0.0249028
0.0248196
0.0247376
0.0246568
0.0245774
0.0244991
0.0244221
0.0243463
0.0242716
0.0241981
0.0241258
0.0240545
0.0239843
0.0239152
0.0238472
0.0237802
0.0237142
0.0236492
0.0235852
0.0235222
0.0234601
0.0233989
0.0233387
0.0232793
0.0232208
0.0231632
0.0231064
0.0230505
0.0229953
0.022941
0.0228875
0.0228347
0.0227827
0.0227314
0.0226809
0.0226311
0.022582
0.0225336
0.0224858
0.0224387
0.0223923
0.0223466
0.0223015
0.0222569
0.0222131
0.0221698
0.0221271
0.022085
0.0220434
0.0220025
0.021962
0.0219222
0.0218828
0.021844
0.0218057
0.0217679
0.0217306
0.0216939
0.0216576
0.0216217
0.0215864
0.0215515
0.0215171
0.0214831
0.0214496
0.0214165
0.0213838
0.0213516
0.0213198
0.0212884
0.0212574
0.0212268
0.0211966
0.0211668
0.0211374
0.0211083
0.0210797
0.0210514
0.0210234
0.0209958
0.0209686
0.0209417
0.0209152
0.0208889
0.020863
0.0208373
0.0208121
0.020787
0.0207625
0.020738
0.0207141
0.0206902
0.020667
0.0206436
0.0206212
0.0205984
0.0205768
0.0205547
0.0205338
0.0205125
0.0204922
0.0204721
0.020452
0.0204335
0.0204133
0.0203968
0.0203762
0.0203621
0.020341
0.02033
0.0203072
0.000545458
0.00058001
0.00064063
0.000727478
0.00081842
0.000932143
0.00105119
0.00119262
0.00134836
0.00153185
0.00174367
0.00199905
0.00230294
0.00267795
0.00313094
0.00368636
0.00435514
0.00515353
0.00608413
0.00714643
0.00832457
0.00959712
0.0109303
0.0122893
0.0136344
0.0149406
0.0161768
0.0173322
0.0183911
0.0193535
0.0202171
0.0209869
0.0216658
0.0222624
0.0227818
0.0232319
0.0236194
0.0239504
0.0242308
0.0244656
0.0246625
0.0248209
0.0249509
0.0250533
0.0251305
0.0251863
0.025223
0.025244
0.0252477
0.0252416
0.0252248
0.0251962
0.0251594
0.0251153
0.0250645
0.0250086
0.0249471
0.0248818
0.0248136
0.0247418
0.0246674
0.0245909
0.0245126
0.0244328
0.0243521
0.0242702
0.0241877
0.0241049
0.0240217
0.0239384
0.0238551
0.0237719
0.023689
0.0236063
0.0235242
0.0234425
0.0233613
0.0232808
0.0232009
0.0231218
0.0230434
0.0229658
0.0228889
0.022813
0.0227377
0.0226634
0.02259
0.0225173
0.0224456
0.0223748
0.0223048
0.0222358
0.0221676
0.0221003
0.0220338
0.0219682
0.0219035
0.0218397
0.0217767
0.0217146
0.0216532
0.0215928
0.0215331
0.0214743
0.0214162
0.021359
0.0213025
0.0212468
0.0211919
0.0211377
0.0210842
0.0210315
0.0209795
0.0209282
0.0208777
0.0208278
0.0207786
0.02073
0.0206821
0.0206349
0.0205883
0.0205423
0.020497
0.0204522
0.0204081
0.0203645
0.0203216
0.0202792
0.0202374
0.0201961
0.0201554
0.0201152
0.0200755
0.0200364
0.0199978
0.0199597
0.0199221
0.019885
0.0198484
0.0198122
0.0197765
0.0197413
0.0197065
0.0196722
0.0196383
0.0196049
0.0195719
0.0195393
0.0195071
0.0194754
0.019444
0.0194131
0.0193825
0.0193524
0.0193226
0.0192932
0.0192642
0.0192355
0.0192072
0.0191793
0.0191517
0.0191245
0.0190976
0.0190711
0.0190448
0.019019
0.0189934
0.0189682
0.0189433
0.0189187
0.0188944
0.0188704
0.0188467
0.0188233
0.0188001
0.0187774
0.0187548
0.0187327
0.0187106
0.0186891
0.0186675
0.0186467
0.0186257
0.0186056
0.0185852
0.0185658
0.0185459
0.0185272
0.0185082
0.0184901
0.0184721
0.0184543
0.0184376
0.0184198
0.0184048
0.0183867
0.0183741
0.0183553
0.0183457
0.0183255
0.00054288
0.000561118
0.00059327
0.00064335
0.000697291
0.000764194
0.000834223
0.000914581
0.00100113
0.00109886
0.00120752
0.00133274
0.00147634
0.00164723
0.00184799
0.00209112
0.0023837
0.00273725
0.00316257
0.00367067
0.00426674
0.00495755
0.00574011
0.00660963
0.00754808
0.00854293
0.00956665
0.010602
0.0116227
0.0126144
0.0135602
0.0144517
0.0152805
0.0160453
0.0167437
0.0173785
0.0179505
0.018464
0.0189222
0.0193289
0.0196898
0.0200063
0.0202847
0.0205275
0.0207381
0.0209197
0.0210749
0.0212071
0.0213171
0.0214086
0.0214839
0.0215433
0.0215889
0.0216223
0.0216446
0.0216577
0.0216606
0.0216572
0.0216475
0.0216302
0.0216077
0.0215803
0.0215487
0.0215131
0.0214745
0.0214324
0.0213879
0.0213415
0.0212928
0.0212423
0.0211904
0.0211372
0.0210829
0.0210276
0.0209717
0.0209151
0.020858
0.0208007
0.020743
0.0206851
0.0206272
0.0205693
0.0205114
0.0204536
0.020396
0.0203386
0.0202815
0.0202246
0.0201682
0.0201121
0.0200564
0.0200011
0.0199462
0.0198918
0.0198378
0.0197844
0.0197314
0.0196789
0.019627
0.0195756
0.0195247
0.0194744
0.0194245
0.0193753
0.0193265
0.0192783
0.0192307
0.0191836
0.019137
0.0190909
0.0190454
0.0190005
0.018956
0.0189121
0.0188687
0.0188258
0.0187834
0.0187416
0.0187002
0.0186594
0.018619
0.0185791
0.0185398
0.0185008
0.0184624
0.0184245
0.018387
0.0183499
0.0183133
0.0182772
0.0182415
0.0182062
0.0181714
0.018137
0.018103
0.0180695
0.0180363
0.0180036
0.0179712
0.0179393
0.0179077
0.0178765
0.0178457
0.0178153
0.0177853
0.0177556
0.0177263
0.0176973
0.0176687
0.0176405
0.0176125
0.017585
0.0175577
0.0175308
0.0175043
0.017478
0.0174521
0.0174265
0.0174012
0.0173762
0.0173515
0.0173272
0.0173031
0.0172793
0.0172558
0.0172326
0.0172097
0.0171871
0.0171647
0.0171426
0.0171208
0.0170993
0.017078
0.017057
0.0170362
0.0170158
0.0169955
0.0169757
0.0169559
0.0169366
0.0169173
0.0168987
0.0168798
0.0168619
0.0168436
0.0168263
0.0168086
0.0167919
0.0167749
0.0167588
0.0167427
0.0167269
0.016712
0.0166963
0.0166828
0.0166669
0.0166555
0.016639
0.0166305
0.0166126
0.000541242
0.000550906
0.000567308
0.000595194
0.00062704
0.000667061
0.000709702
0.000757884
0.000809347
0.000865955
0.00092716
0.000995299
0.0010705
0.00115669
0.00125417
0.00136856
0.00150191
0.00166041
0.00184906
0.00207493
0.00234323
0.00266351
0.00303994
0.0034803
0.00398405
0.00455617
0.00518902
0.00587989
0.00661515
0.00738514
0.00817385
0.00896906
0.00975563
0.0105239
0.0112633
0.0119684
0.0126329
0.0132548
0.0138323
0.014365
0.0148552
0.0153025
0.0157104
0.0160802
0.0164148
0.0167163
0.0169871
0.0172298
0.0174463
0.0176387
0.0178097
0.0179606
0.0180931
0.018209
0.0183096
0.0183967
0.0184706
0.0185335
0.0185864
0.0186296
0.0186641
0.0186909
0.0187107
0.0187239
0.0187318
0.0187334
0.0187313
0.0187252
0.0187145
0.0187004
0.0186831
0.018663
0.0186405
0.0186155
0.0185886
0.0185596
0.0185291
0.0184973
0.018464
0.0184296
0.0183941
0.0183578
0.0183206
0.0182829
0.0182445
0.0182056
0.0181663
0.0181266
0.0180867
0.0180466
0.0180063
0.0179659
0.0179254
0.0178849
0.0178444
0.017804
0.0177636
0.0177234
0.0176833
0.0176433
0.0176035
0.017564
0.0175246
0.0174855
0.0174466
0.017408
0.0173697
0.0173316
0.0172939
0.0172564
0.0172192
0.0171823
0.0171458
0.0171096
0.0170737
0.0170381
0.0170029
0.0169679
0.0169334
0.0168991
0.0168652
0.0168317
0.0167984
0.0167655
0.016733
0.0167008
0.0166689
0.0166373
0.0166061
0.0165752
0.0165446
0.0165144
0.0164845
0.0164549
0.0164256
0.0163967
0.016368
0.0163397
0.0163117
0.016284
0.0162566
0.0162295
0.0162027
0.0161762
0.01615
0.0161241
0.0160985
0.0160731
0.0160481
0.0160233
0.0159988
0.0159746
0.0159507
0.0159271
0.0159037
0.0158806
0.0158577
0.0158351
0.0158128
0.0157907
0.0157689
0.0157474
0.0157261
0.015705
0.0156842
0.0156636
0.0156433
0.0156232
0.0156033
0.0155837
0.0155643
0.0155452
0.0155263
0.0155076
0.0154891
0.0154709
0.0154529
0.0154353
0.0154176
0.0154005
0.0153834
0.0153668
0.0153501
0.0153342
0.015318
0.0153026
0.015287
0.0152722
0.0152571
0.0152428
0.0152286
0.0152146
0.0152014
0.0151875
0.0151756
0.0151616
0.0151515
0.0151369
0.0151295
0.0151136
0.000540075
0.000544666
0.000552518
0.00056698
0.000584994
0.000608478
0.00063435
0.000663718
0.000695231
0.000729592
0.00076618
0.000806091
0.000848867
0.000896492
0.000948507
0.00100765
0.00107413
0.00115094
0.00123978
0.00134374
0.00146537
0.00160988
0.00177939
0.00198069
0.00221578
0.00249187
0.00280963
0.00317446
0.00358527
0.00404324
0.00454385
0.00508382
0.0056548
0.00625007
0.00685976
0.00747608
0.00808958
0.00869329
0.0092807
0.00984619
0.0103873
0.0108997
0.0113834
0.0118364
0.0122595
0.0126523
0.0130164
0.0133521
0.0136613
0.0139448
0.0142045
0.0144418
0.0146581
0.0148548
0.0150332
0.0151949
0.0153407
0.0154722
0.0155904
0.0156964
0.0157909
0.0158749
0.0159494
0.0160148
0.0160724
0.016122
0.016165
0.0162019
0.0162329
0.0162583
0.016279
0.0162951
0.0163071
0.0163152
0.0163201
0.0163212
0.0163199
0.0163163
0.0163096
0.0163008
0.01629
0.0162773
0.0162629
0.016247
0.0162296
0.016211
0.0161911
0.0161702
0.0161485
0.0161258
0.0161023
0.0160781
0.0160533
0.0160279
0.0160021
0.0159757
0.0159491
0.015922
0.0158947
0.0158671
0.0158393
0.0158114
0.0157833
0.0157551
0.0157269
0.0156985
0.0156702
0.0156418
0.0156134
0.0155851
0.0155568
0.0155286
0.0155005
0.0154724
0.0154445
0.0154167
0.015389
0.0153614
0.015334
0.0153067
0.0152796
0.0152527
0.0152259
0.0151994
0.015173
0.0151468
0.0151207
0.0150949
0.0150693
0.0150439
0.0150186
0.0149936
0.0149688
0.0149442
0.0149198
0.0148957
0.0148717
0.0148479
0.0148244
0.0148011
0.014778
0.0147551
0.0147324
0.0147099
0.0146877
0.0146656
0.0146438
0.0146222
0.0146008
0.0145796
0.0145586
0.0145378
0.0145173
0.0144969
0.0144768
0.0144569
0.0144371
0.0144176
0.0143983
0.0143792
0.0143602
0.0143415
0.014323
0.0143047
0.0142866
0.0142687
0.0142509
0.0142334
0.014216
0.0141989
0.0141819
0.0141652
0.0141486
0.0141323
0.014116
0.0141001
0.0140843
0.0140688
0.0140534
0.0140384
0.0140233
0.0140088
0.0139942
0.0139802
0.013966
0.0139525
0.0139388
0.0139258
0.0139127
0.0139002
0.0138877
0.0138755
0.0138639
0.0138518
0.0138413
0.0138292
0.0138202
0.0138075
0.013801
0.0137871
0.000539162
0.000540424
0.000543529
0.000549995
0.000559297
0.000572243
0.000587288
0.00060481
0.000623947
0.000644988
0.000667348
0.000691591
0.000717149
0.000745086
0.000774847
0.000807828
0.000843867
0.000884262
0.000929677
0.000981453
0.00104035
0.00110903
0.00118778
0.00128058
0.00138804
0.00151443
0.00166102
0.00183242
0.00203012
0.00225787
0.00251678
0.00280941
0.00313524
0.00349423
0.00388393
0.00430171
0.00474295
0.00520266
0.00567557
0.00615508
0.00663704
0.00711471
0.00758506
0.00804302
0.0084865
0.00891238
0.00931963
0.00970638
0.0100727
0.0104177
0.0107419
0.0110455
0.0113292
0.0115934
0.0118391
0.0120672
0.0122783
0.0124736
0.012654
0.0128203
0.0129733
0.0131139
0.013243
0.0133611
0.0134694
0.013568
0.0136579
0.0137397
0.0138139
0.013881
0.0139416
0.013996
0.0140448
0.0140883
0.014127
0.014161
0.0141908
0.0142169
0.0142392
0.0142582
0.014274
0.014287
0.0142973
0.0143051
0.0143105
0.0143139
0.0143151
0.0143146
0.0143127
0.0143089
0.0143037
0.0142971
0.0142893
0.0142804
0.0142704
0.0142595
0.0142476
0.0142349
0.0142216
0.0142073
0.0141925
0.0141773
0.0141614
0.014145
0.0141282
0.014111
0.0140934
0.0140754
0.0140572
0.0140388
0.0140201
0.0140011
0.013982
0.0139628
0.0139434
0.0139239
0.0139043
0.0138846
0.0138648
0.013845
0.0138252
0.0138053
0.0137854
0.0137656
0.0137457
0.0137259
0.0137061
0.0136864
0.0136667
0.0136471
0.0136275
0.013608
0.0135886
0.0135693
0.01355
0.0135309
0.0135118
0.0134929
0.013474
0.0134553
0.0134367
0.0134182
0.0133998
0.0133816
0.0133634
0.0133454
0.0133275
0.0133098
0.0132922
0.0132747
0.0132574
0.0132402
0.0132231
0.0132062
0.0131894
0.0131727
0.0131562
0.0131399
0.0131237
0.0131076
0.0130916
0.0130759
0.0130602
0.0130447
0.0130294
0.0130142
0.0129991
0.0129842
0.0129694
0.0129548
0.0129403
0.012926
0.0129118
0.0128978
0.0128839
0.0128702
0.0128566
0.0128433
0.0128301
0.0128172
0.0128043
0.0127918
0.0127792
0.0127672
0.012755
0.0127434
0.0127316
0.0127204
0.0127092
0.0126984
0.0126877
0.0126772
0.0126672
0.0126568
0.0126478
0.0126374
0.0126296
0.0126187
0.0126132
0.0126011
0.000538257
0.000537312
0.000537709
0.000539409
0.00054323
0.000549399
0.00055733
0.000567061
0.000578074
0.000590537
0.000603957
0.000618623
0.000634048
0.000650805
0.000668437
0.000687642
0.000708241
0.000730807
0.000755556
0.000783217
0.000813785
0.000848763
0.000887895
0.000933123
0.000984591
0.00104414
0.00111263
0.00119224
0.00128387
0.00139004
0.00151216
0.00165267
0.00181301
0.00199501
0.0022
0.00242896
0.00268224
0.00295913
0.00325909
0.0035793
0.00391852
0.00427228
0.00463839
0.00501208
0.00539063
0.00576976
0.0061469
0.00651841
0.00688248
0.00723642
0.00757905
0.00790884
0.00822505
0.00852692
0.00881419
0.00908679
0.00934463
0.00958821
0.00981759
0.0100334
0.0102359
0.0104257
0.0106034
0.0107694
0.0109246
0.0110691
0.0112039
0.0113292
0.0114458
0.011554
0.0116543
0.0117473
0.0118334
0.0119129
0.0119864
0.012054
0.0121163
0.0121736
0.0122261
0.0122742
0.0123181
0.0123582
0.0123946
0.0124276
0.0124573
0.0124841
0.0125081
0.0125294
0.0125484
0.012565
0.0125795
0.0125919
0.0126025
0.0126113
0.0126184
0.012624
0.0126282
0.012631
0.0126326
0.0126328
0.0126322
0.0126306
0.0126278
0.0126242
0.0126198
0.0126146
0.0126086
0.012602
0.0125948
0.0125869
0.0125786
0.0125697
0.0125603
0.0125505
0.0125403
0.0125298
0.0125189
0.0125076
0.0124961
0.0124843
0.0124723
0.01246
0.0124476
0.0124349