/*--------------------------------*- C++ -*----------------------------------*\
  =========                 |
  \\      /  F ield         | OpenFOAM: The Open Source CFD Toolbox
   \\    /   O peration     | Website:  https://openfoam.org
    \\  /    A nd           | Version:  12
     \\/     M anipulation  |
\*---------------------------------------------------------------------------*/
FoamFile
{
    format      ascii;
    class       volScalarField;
    location    "600";
    object      k;
}
// * * * * * * * * * * * * * * * * * * * * * * * * * * * * * * * * * * * * * //

dimensions      [0 2 -2 0 0 0 0];

internalField   nonuniform List<scalar> 
20000
(
0.00121539
0.00045653
0.000505675
0.000674718
0.000786484
0.000874495
0.000961633
0.00105489
0.00113224
0.00120303
0.00125068
0.00130257
0.00133578
0.00136887
0.00139709
0.001423
0.00144271
0.00145971
0.00147318
0.00148547
0.00149474
0.00150255
0.00150863
0.00151346
0.00151752
0.00152019
0.00152215
0.00152334
0.00152364
0.00152347
0.00152296
0.00152187
0.00152036
0.00151863
0.00151652
0.00151419
0.00151174
0.00150907
0.00150614
0.0015032
0.00150006
0.00149691
0.00149362
0.00149029
0.00148692
0.0014835
0.00148
0.00147652
0.00147296
0.00146945
0.00146591
0.0014624
0.00145884
0.00145532
0.00145181
0.00144833
0.00144485
0.0014414
0.00143798
0.00143458
0.0014312
0.00142786
0.00142453
0.00142126
0.00141798
0.00141477
0.00141157
0.00140842
0.00140529
0.0014022
0.00139914
0.00139612
0.00139313
0.00139018
0.00138726
0.00138438
0.00138153
0.00137871
0.00137593
0.00137318
0.00137048
0.0013678
0.00136515
0.00136254
0.00135996
0.00135741
0.0013549
0.00135241
0.00134996
0.00134754
0.00134515
0.00134279
0.00134046
0.00133816
0.00133589
0.00133365
0.00133144
0.00132925
0.00132709
0.00132496
0.00132286
0.00132078
0.00131873
0.00131671
0.00131471
0.00131274
0.00131079
0.00130887
0.00130697
0.0013051
0.00130325
0.00130142
0.00129962
0.00129784
0.00129608
0.00129434
0.00129263
0.00129094
0.00128926
0.00128761
0.00128598
0.00128437
0.00128278
0.00128121
0.00127966
0.00127813
0.00127662
0.00127512
0.00127365
0.00127219
0.00127076
0.00126933
0.00126793
0.00126655
0.00126518
0.00126382
0.00126249
0.00126117
0.00125987
0.00125858
0.00125731
0.00125605
0.00125482
0.00125359
0.00125238
0.00125118
0.00125
0.00124884
0.00124769
0.00124655
0.00124542
0.00124431
0.00124321
0.00124213
0.00124106
0.00124
0.00123895
0.00123792
0.0012369
0.0012359
0.0012349
0.00123392
0.00123295
0.001232
0.00123105
0.00123012
0.0012292
0.00122829
0.00122739
0.0012265
0.00122562
0.00122475
0.00122388
0.00122302
0.00122217
0.00122132
0.00122049
0.00121966
0.00121883
0.00121801
0.0012172
0.00121639
0.0012156
0.00121481
0.00121405
0.00121326
0.00121255
0.00121175
0.0012111
0.00121029
0.00120973
0.00120886
0.00120842
0.00120747
0.00120711
0.00120618
0.00120582
0.00120488
0.00120459
0.0012031
0.00309522
0.00342041
0.00442772
0.00579898
0.00659397
0.00721214
0.00780633
0.00842394
0.00891522
0.00935103
0.00962744
0.0099275
0.0101078
0.010286
0.0104333
0.0105667
0.0106622
0.0107423
0.0108017
0.0108548
0.0108908
0.010919
0.0109379
0.0109501
0.0109587
0.0109599
0.0109576
0.0109515
0.0109409
0.0109281
0.0109138
0.0108968
0.0108778
0.010858
0.0108364
0.010814
0.0107913
0.0107676
0.0107427
0.0107182
0.0106927
0.0106675
0.0106418
0.010616
0.0105903
0.0105645
0.0105384
0.0105127
0.0104867
0.0104612
0.0104356
0.0104104
0.010385
0.01036
0.0103353
0.0103108
0.0102864
0.0102623
0.0102386
0.010215
0.0101917
0.0101687
0.0101458
0.0101234
0.010101
0.0100791
0.0100573
0.0100359
0.0100147
0.00999385
0.00997318
0.00995281
0.00993268
0.00991282
0.00989322
0.00987387
0.00985478
0.00983596
0.00981737
0.00979902
0.00978095
0.00976309
0.00974548
0.0097281
0.00971094
0.00969403
0.00967733
0.00966088
0.00964462
0.0096286
0.00961277
0.00959716
0.00958175
0.00956655
0.00955155
0.00953674
0.00952214
0.00950771
0.0094935
0.00947946
0.00946561
0.00945193
0.00943845
0.00942513
0.00941198
0.00939902
0.00938621
0.00937358
0.0093611
0.0093488
0.00933663
0.00932464
0.00931279
0.00930111
0.00928956
0.00927817
0.00926692
0.00925582
0.00924485
0.00923403
0.00922333
0.00921279
0.00920236
0.00919208
0.00918192
0.00917189
0.00916198
0.0091522
0.00914254
0.00913299
0.00912358
0.00911427
0.00910509
0.00909601
0.00908705
0.0090782
0.00906946
0.00906082
0.0090523
0.00904387
0.00903556
0.00902734
0.00901922
0.0090112
0.00900329
0.00899546
0.00898774
0.0089801
0.00897256
0.00896511
0.00895774
0.00895047
0.00894329
0.00893619
0.00892918
0.00892225
0.00891541
0.00890866
0.00890198
0.00889539
0.00888888
0.00888246
0.00887612
0.00886986
0.00886366
0.00885756
0.00885152
0.00884554
0.00883965
0.00883383
0.00882806
0.00882235
0.00881668
0.00881105
0.00880547
0.00879995
0.00879449
0.00878904
0.00878367
0.0087783
0.00877302
0.0087677
0.00876256
0.00875732
0.00875238
0.00874719
0.00874248
0.00873726
0.00873294
0.00872761
0.00872387
0.00871815
0.00871519
0.008709
0.00870651
0.00870039
0.00869792
0.00869169
0.0086897
0.00868015
0.00355495
0.00360058
0.00411358
0.00536212
0.00668477
0.00807302
0.00934996
0.0105336
0.0114758
0.0122842
0.0128604
0.0134052
0.0137952
0.0141434
0.0144327
0.014688
0.0148832
0.0150486
0.0151794
0.0152942
0.0153812
0.0154537
0.0155101
0.0155546
0.0155908
0.0156156
0.0156326
0.0156434
0.0156468
0.0156459
0.0156417
0.0156326
0.0156201
0.0156057
0.0155881
0.0155688
0.0155483
0.015526
0.0155017
0.0154772
0.0154513
0.015425
0.0153979
0.0153702
0.0153424
0.0153141
0.0152853
0.0152566
0.0152274
0.0151985
0.0151694
0.0151405
0.0151113
0.0150824
0.0150537
0.0150251
0.0149966
0.0149684
0.0149403
0.0149125
0.0148849
0.0148575
0.0148303
0.0148035
0.0147768
0.0147505
0.0147244
0.0146986
0.014673
0.0146478
0.0146228
0.0145981
0.0145737
0.0145496
0.0145258
0.0145022
0.0144789
0.0144559
0.0144332
0.0144107
0.0143886
0.0143667
0.0143451
0.0143237
0.0143026
0.0142818
0.0142612
0.014241
0.0142209
0.0142011
0.0141816
0.0141623
0.0141432
0.0141244
0.0141058
0.0140874
0.0140693
0.0140514
0.0140337
0.0140163
0.0139991
0.0139821
0.0139653
0.0139487
0.0139323
0.0139161
0.0139002
0.0138844
0.0138688
0.0138535
0.0138383
0.0138233
0.0138084
0.0137938
0.0137794
0.0137651
0.013751
0.0137371
0.0137234
0.0137098
0.0136964
0.0136832
0.0136701
0.0136572
0.0136444
0.0136318
0.0136194
0.0136071
0.0135949
0.0135829
0.0135711
0.0135594
0.0135478
0.0135364
0.0135251
0.0135139
0.0135029
0.013492
0.0134813
0.0134707
0.0134602
0.0134498
0.0134396
0.0134295
0.0134195
0.0134096
0.0133998
0.0133902
0.0133807
0.0133713
0.013362
0.0133528
0.0133437
0.0133347
0.0133259
0.0133171
0.0133085
0.0132999
0.0132915
0.0132831
0.0132749
0.0132668
0.0132588
0.0132508
0.013243
0.0132353
0.0132276
0.0132201
0.0132126
0.0132052
0.0131979
0.0131907
0.0131835
0.0131764
0.0131693
0.0131624
0.0131554
0.0131486
0.0131417
0.013135
0.0131282
0.0131216
0.013115
0.0131085
0.0131021
0.0130957
0.0130896
0.0130832
0.0130775
0.0130711
0.0130661
0.0130593
0.0130553
0.013048
0.0130446
0.0130373
0.013034
0.013027
0.0130238
0.0130148
0.00376345
0.00367993
0.00376201
0.00416035
0.00503579
0.00623835
0.00752758
0.00891172
0.0101738
0.0113395
0.0122827
0.0131475
0.0138488
0.0144608
0.0149763
0.0154264
0.0157888
0.0160997
0.0163566
0.0165812
0.0167638
0.0169206
0.0170511
0.0171613
0.0172554
0.017332
0.0173949
0.0174469
0.0174873
0.0175201
0.0175452
0.0175633
0.0175754
0.0175832
0.0175857
0.0175849
0.0175814
0.0175742
0.0175638
0.0175521
0.0175379
0.0175224
0.0175051
0.0174865
0.0174671
0.0174464
0.0174247
0.0174024
0.0173793
0.0173559
0.0173319
0.0173077
0.0172828
0.017258
0.0172329
0.0172078
0.0171824
0.017157
0.0171317
0.0171063
0.017081
0.0170557
0.0170304
0.0170053
0.0169802
0.0169554
0.0169306
0.0169061
0.0168817
0.0168575
0.0168334
0.0168095
0.0167858
0.0167624
0.0167391
0.0167161
0.0166933
0.0166707
0.0166483
0.0166261
0.0166042
0.0165825
0.016561
0.0165398
0.0165188
0.016498
0.0164774
0.0164571
0.0164369
0.0164171
0.0163974
0.016378
0.0163587
0.0163397
0.0163209
0.0163023
0.016284
0.0162658
0.0162479
0.0162301
0.0162126
0.0161953
0.0161782
0.0161612
0.0161445
0.016128
0.0161116
0.0160955
0.0160796
0.0160638
0.0160482
0.0160328
0.0160176
0.0160026
0.0159877
0.015973
0.0159585
0.0159442
0.01593
0.015916
0.0159022
0.0158885
0.015875
0.0158617
0.0158485
0.0158354
0.0158226
0.0158098
0.0157973
0.0157848
0.0157725
0.0157604
0.0157484
0.0157365
0.0157248
0.0157132
0.0157018
0.0156905
0.0156793
0.0156683
0.0156574
0.0156466
0.0156359
0.0156254
0.015615
0.0156047
0.0155946
0.0155845
0.0155746
0.0155648
0.0155551
0.0155455
0.015536
0.0155267
0.0155174
0.0155083
0.0154993
0.0154904
0.0154815
0.0154728
0.0154642
0.0154558
0.0154474
0.0154391
0.0154309
0.0154229
0.0154149
0.015407
0.0153992
0.0153915
0.0153839
0.0153764
0.0153689
0.0153614
0.015354
0.0153468
0.0153395
0.0153324
0.0153252
0.0153182
0.0153111
0.0153042
0.0152973
0.0152906
0.0152839
0.0152773
0.0152708
0.0152644
0.0152583
0.0152519
0.0152465
0.0152399
0.0152354
0.0152283
0.0152247
0.0152175
0.0152141
0.0152074
0.0152041
0.0151963
0.00382063
0.00375773
0.00369074
0.00373465
0.0039525
0.00445082
0.00519552
0.00620804
0.00733353
0.00859265
0.00977967
0.0109196
0.0119293
0.012821
0.0135937
0.0142805
0.0148611
0.0153666
0.0157985
0.0161791
0.0165007
0.0167826
0.0170244
0.0172356
0.0174198
0.0175775
0.0177134
0.0178314
0.0179316
0.0180188
0.0180928
0.0181559
0.0182092
0.0182547
0.018292
0.0183233
0.0183486
0.0183688
0.0183836
0.0183952
0.0184026
0.0184071
0.0184085
0.0184074
0.0184044
0.0183988
0.0183915
0.0183826
0.0183721
0.0183605
0.0183476
0.0183339
0.0183189
0.0183034
0.0182872
0.0182703
0.0182528
0.018235
0.0182167
0.018198
0.018179
0.0181598
0.0181403
0.0181207
0.0181008
0.0180809
0.0180609
0.0180409
0.0180208
0.0180006
0.0179805
0.0179604
0.0179403
0.0179203
0.0179003
0.0178804
0.0178606
0.0178409
0.0178213
0.0178018
0.0177825
0.0177632
0.0177441
0.0177251
0.0177063
0.0176876
0.017669
0.0176506
0.0176324
0.0176143
0.0175964
0.0175786
0.017561
0.0175435
0.0175262
0.0175091
0.0174921
0.0174753
0.0174587
0.0174422
0.0174259
0.0174097
0.0173937
0.0173779
0.0173622
0.0173467
0.0173314
0.0173162
0.0173012
0.0172863
0.0172716
0.0172571
0.0172427
0.0172285
0.0172144
0.0172005
0.0171867
0.017173
0.0171596
0.0171462
0.017133
0.01712
0.0171071
0.0170943
0.0170817
0.0170692
0.0170569
0.0170447
0.0170326
0.0170207
0.0170089
0.0169972
0.0169857
0.0169743
0.016963
0.0169519
0.0169409
0.0169299
0.0169192
0.0169085
0.016898
0.0168876
0.0168773
0.0168671
0.016857
0.0168471
0.0168372
0.0168275
0.0168179
0.0168084
0.016799
0.0167897
0.0167805
0.0167714
0.0167625
0.0167536
0.0167448
0.0167362
0.0167276
0.0167192
0.0167108
0.0167026
0.0166944
0.0166864
0.0166785
0.0166706
0.0166629
0.0166552
0.0166476
0.0166402
0.0166327
0.0166254
0.0166181
0.0166109
0.0166037
0.0165967
0.0165896
0.0165827
0.0165757
0.0165689
0.016562
0.0165553
0.0165486
0.0165421
0.0165355
0.0165293
0.0165229
0.0165169
0.0165109
0.016505
0.0164996
0.0164935
0.016489
0.0164826
0.0164791
0.0164725
0.0164694
0.0164634
0.0164604
0.0164539
0.00384397
0.00383107
0.00376467
0.00368004
0.00368617
0.00376945
0.00398484
0.00442357
0.00502128
0.00584633
0.00679558
0.00785324
0.00892897
0.00997765
0.0109522
0.0118578
0.0126703
0.0133993
0.0140404
0.0146136
0.0151129
0.0155555
0.0159436
0.0162863
0.0165882
0.0168533
0.0170868
0.0172939
0.0174754
0.0176374
0.0177792
0.0179049
0.0180157
0.0181141
0.0182004
0.018277
0.0183438
0.018403
0.0184541
0.0184994
0.0185381
0.0185718
0.0186008
0.0186251
0.0186459
0.0186629
0.0186767
0.0186877
0.018696
0.0187021
0.0187059
0.0187079
0.0187078
0.0187065
0.0187037
0.0186995
0.0186941
0.0186878
0.0186804
0.0186722
0.0186631
0.0186533
0.0186429
0.0186319
0.0186202
0.0186083
0.0185959
0.0185831
0.0185699
0.0185564
0.0185427
0.0185287
0.0185146
0.0185002
0.0184857
0.0184711
0.0184563
0.0184415
0.0184266
0.0184116
0.0183967
0.0183816
0.0183666
0.0183516
0.0183365
0.0183215
0.0183065
0.0182916
0.0182767
0.0182618
0.018247
0.0182323
0.0182176
0.018203
0.0181884
0.018174
0.0181596
0.0181453
0.0181312
0.0181171
0.0181031
0.0180892
0.0180754
0.0180617
0.0180481
0.0180347
0.0180213
0.018008
0.0179949
0.0179819
0.0179689
0.0179561
0.0179434
0.0179308
0.0179183
0.017906
0.0178937
0.0178816
0.0178696
0.0178577
0.0178459
0.0178342
0.0178226
0.0178112
0.0177998
0.0177886
0.0177775
0.0177664
0.0177555
0.0177447
0.0177341
0.0177235
0.017713
0.0177027
0.0176924
0.0176823
0.0176722
0.0176623
0.0176525
0.0176427
0.0176331
0.0176236
0.0176142
0.0176048
0.0175956
0.0175865
0.0175775
0.0175685
0.0175597
0.017551
0.0175423
0.0175338
0.0175253
0.017517
0.0175087
0.0175005
0.0174925
0.0174845
0.0174766
0.0174688
0.0174611
0.0174535
0.017446
0.0174385
0.0174312
0.017424
0.0174168
0.0174097
0.0174027
0.0173958
0.017389
0.0173822
0.0173755
0.0173688
0.0173622
0.0173557
0.0173491
0.0173427
0.0173363
0.01733
0.0173236
0.0173175
0.0173112
0.0173053
0.0172992
0.0172936
0.0172876
0.0172822
0.0172766
0.0172714
0.0172663
0.0172611
0.0172569
0.0172514
0.0172481
0.0172426
0.0172398
0.0172348
0.0172323
0.0172274
0.00384402
0.00388398
0.00384175
0.00374994
0.00368658
0.00363986
0.00365565
0.00373529
0.00391499
0.00425489
0.00472768
0.00536225
0.00612755
0.00699834
0.00791551
0.00885333
0.0097659
0.0106372
0.0114433
0.012189
0.0128633
0.0134749
0.0140242
0.0145184
0.0149616
0.015358
0.015713
0.0160325
0.0163178
0.0165754
0.0168049
0.0170116
0.0171973
0.0173647
0.017515
0.017651
0.0177726
0.0178825
0.0179808
0.01807
0.0181498
0.0182218
0.0182868
0.0183447
0.0183971
0.0184439
0.0184858
0.0185232
0.0185564
0.0185861
0.0186122
0.0186353
0.0186552
0.0186727
0.0186879
0.0187008
0.0187117
0.0187209
0.0187284
0.0187342
0.0187386
0.0187417
0.0187435
0.0187442
0.0187439
0.0187427
0.0187406
0.0187377
0.018734
0.0187297
0.0187247
0.0187192
0.0187131
0.0187066
0.0186996
0.0186922
0.0186844
0.0186764
0.0186679
0.0186593
0.0186503
0.0186412
0.0186318
0.0186223
0.0186125
0.0186026
0.0185926
0.0185825
0.0185723
0.0185619
0.0185515
0.018541
0.0185305
0.0185199
0.0185093
0.0184986
0.0184879
0.0184773
0.0184666
0.0184559
0.0184452
0.0184345
0.0184238
0.0184132
0.0184026
0.018392
0.0183815
0.0183709
0.0183605
0.0183501
0.0183397
0.0183294
0.0183191
0.0183089
0.0182987
0.0182886
0.0182786
0.0182686
0.0182587
0.0182489
0.0182391
0.0182294
0.0182198
0.0182102
0.0182007
0.0181913
0.018182
0.0181727
0.0181635
0.0181544
0.0181453
0.0181363
0.0181275
0.0181186
0.0181099
0.0181012
0.0180927
0.0180841
0.0180757
0.0180674
0.0180591
0.0180509
0.0180428
0.0180347
0.0180268
0.0180189
0.0180111
0.0180033
0.0179957
0.0179881
0.0179806
0.0179731
0.0179658
0.0179585
0.0179513
0.0179441
0.0179371
0.0179301
0.0179232
0.0179164
0.0179097
0.017903
0.0178964
0.0178899
0.0178835
0.0178772
0.0178709
0.0178647
0.0178585
0.0178525
0.0178465
0.0178406
0.0178347
0.0178288
0.0178229
0.0178172
0.0178115
0.0178059
0.0178002
0.0177947
0.0177891
0.0177837
0.0177782
0.0177731
0.0177677
0.0177629
0.0177576
0.017753
0.017748
0.0177437
0.0177393
0.017735
0.0177313
0.0177269
0.0177241
0.0177197
0.0177175
0.0177136
0.0177118
0.0177085
0.00383059
0.00390648
0.00388325
0.00382038
0.00374798
0.00367331
0.00362246
0.00359142
0.0036044
0.00366405
0.00380045
0.00404749
0.00439845
0.00487589
0.00546189
0.00615078
0.00690915
0.0077136
0.00852596
0.0093293
0.0100993
0.0108288
0.0115088
0.0121385
0.0127175
0.0132476
0.0137304
0.0141718
0.0145722
0.0149383
0.0152696
0.0155714
0.0158458
0.0160961
0.0163237
0.0165321
0.0167208
0.0168939
0.0170511
0.0171954
0.0173267
0.0174473
0.0175579
0.0176585
0.017751
0.0178356
0.0179132
0.0179842
0.0180492
0.0181088
0.0181633
0.0182132
0.0182587
0.0183003
0.0183384
0.0183732
0.0184047
0.0184336
0.0184598
0.0184835
0.0185049
0.0185243
0.0185418
0.0185574
0.0185713
0.0185838
0.0185949
0.0186046
0.018613
0.0186203
0.0186265
0.0186317
0.018636
0.0186394
0.0186421
0.0186439
0.0186451
0.0186456
0.0186455
0.0186449
0.0186438
0.0186421
0.01864
0.0186375
0.0186346
0.0186313
0.0186277
0.0186237
0.0186195
0.018615
0.0186102
0.0186053
0.0186
0.0185946
0.018589
0.0185832
0.0185773
0.0185712
0.0185651
0.0185587
0.0185523
0.0185458
0.0185391
0.0185324
0.0185257
0.0185188
0.0185119
0.018505
0.018498
0.0184909
0.0184838
0.0184767
0.0184696
0.0184625
0.0184553
0.0184482
0.018441
0.0184339
0.0184267
0.0184195
0.0184124
0.0184053
0.0183981
0.018391
0.018384
0.0183769
0.0183699
0.0183629
0.0183559
0.0183489
0.018342
0.0183351
0.0183283
0.0183215
0.0183147
0.018308
0.0183013
0.0182946
0.018288
0.0182815
0.018275
0.0182685
0.0182621
0.0182557
0.0182493
0.0182431
0.0182368
0.0182306
0.0182245
0.0182184
0.0182124
0.0182064
0.0182005
0.0181946
0.0181888
0.018183
0.0181773
0.0181716
0.018166
0.0181604
0.018155
0.0181495
0.0181442
0.0181389
0.0181336
0.0181284
0.0181233
0.0181182
0.0181132
0.0181083
0.0181034
0.0180985
0.0180937
0.0180889
0.0180841
0.0180794
0.0180746
0.0180701
0.0180654
0.0180609
0.0180562
0.0180519
0.0180473
0.0180432
0.0180387
0.0180349
0.0180305
0.018027
0.0180228
0.0180196
0.0180159
0.0180128
0.0180098
0.0180067
0.0180045
0.0180013
0.0179998
0.0179972
0.0179961
0.0179946
0.00381068
0.00390555
0.00389799
0.00386148
0.00380188
0.00373318
0.00366922
0.00360859
0.00356649
0.00353698
0.00354421
0.0035825
0.00367369
0.0038469
0.00409431
0.00443557
0.00486824
0.00539243
0.00599063
0.00664811
0.00733964
0.0080468
0.00874971
0.00943505
0.0100923
0.0107163
0.0113012
0.0118491
0.0123567
0.0128286
0.0132637
0.0136653
0.0140351
0.0143763
0.0146901
0.0149802
0.0152461
0.0154919
0.0157177
0.0159267
0.016119
0.016297
0.0164616
0.0166132
0.0167539
0.0168839
0.0170046
0.0171161
0.0172196
0.0173157
0.0174047
0.0174873
0.017564
0.0176351
0.0177013
0.0177627
0.0178198
0.0178729
0.0179222
0.017968
0.0180105
0.0180501
0.0180868
0.018121
0.0181526
0.0181821
0.0182094
0.0182347
0.0182581
0.0182798
0.0182999
0.0183184
0.0183355
0.0183513
0.0183658
0.0183791
0.0183913
0.0184025
0.0184127
0.018422
0.0184304
0.0184381
0.0184449
0.0184511
0.0184565
0.0184614
0.0184656
0.0184693
0.0184724
0.0184751
0.0184773
0.0184791
0.0184804
0.0184813
0.0184819
0.0184822
0.0184821
0.0184817
0.018481
0.0184801
0.0184789
0.0184775
0.0184758
0.018474
0.0184719
0.0184697
0.0184673
0.0184647
0.018462
0.0184591
0.0184561
0.018453
0.0184497
0.0184464
0.0184429
0.0184394
0.0184358
0.0184321
0.0184283
0.0184244
0.0184205
0.0184166
0.0184125
0.0184085
0.0184044
0.0184002
0.018396
0.0183918
0.0183876
0.0183833
0.018379
0.0183747
0.0183704
0.018366
0.0183617
0.0183574
0.018353
0.0183486
0.0183443
0.0183399
0.0183356
0.0183312
0.0183269
0.0183226
0.0183182
0.0183139
0.0183096
0.0183054
0.0183011
0.0182969
0.0182926
0.0182884
0.0182843
0.0182801
0.018276
0.0182719
0.0182678
0.0182638
0.0182597
0.0182557
0.0182518
0.0182479
0.018244
0.0182402
0.0182364
0.0182326
0.0182289
0.0182252
0.0182216
0.018218
0.0182144
0.0182109
0.0182073
0.0182038
0.0182003
0.0181969
0.0181934
0.01819
0.0181865
0.0181833
0.0181798
0.0181767
0.0181732
0.0181703
0.018167
0.0181643
0.0181611
0.0181586
0.0181556
0.0181535
0.0181509
0.018149
0.0181469
0.0181451
0.0181437
0.018142
0.0181413
0.01814
0.0181397
0.0181401
0.00379119
0.00388824
0.00389568
0.00387646
0.00383419
0.0037776
0.00372037
0.00365879
0.00360387
0.00355035
0.00351392
0.00348274
0.00348295
0.00350326
0.00355783
0.00366939
0.00383649
0.00406999
0.0043758
0.00475596
0.00520492
0.00571589
0.00627472
0.00686728
0.00747695
0.00809234
0.00869874
0.00929087
0.00985922
0.0104029
0.0109173
0.0114024
0.0118573
0.0122838
0.0126816
0.0130538
0.0133996
0.0137222
0.0140217
0.0143011
0.0145608
0.0148027
0.0150284
0.015238
0.0154337
0.015616
0.0157864
0.0159452
0.0160936
0.0162324
0.0163618
0.016483
0.0165965
0.0167025
0.016802
0.0168952
0.0169825
0.0170646
0.0171414
0.0172136
0.0172813
0.0173451
0.0174048
0.0174611
0.017514
0.0175637
0.0176105
0.0176545
0.0176959
0.0177349
0.0177715
0.0178061
0.0178386
0.0178692
0.0178979
0.017925
0.0179505
0.0179746
0.0179971
0.0180184
0.0180383
0.0180571
0.0180748
0.0180914
0.018107
0.0181216
0.0181353
0.0181482
0.0181603
0.0181716
0.0181822
0.0181921
0.0182014
0.01821
0.0182181
0.0182256
0.0182325
0.018239
0.018245
0.0182506
0.0182557
0.0182604
0.0182648
0.0182688
0.0182724
0.0182757
0.0182787
0.0182814
0.0182838
0.0182859
0.0182878
0.0182895
0.0182909
0.0182921
0.0182931
0.0182939
0.0182946
0.018295
0.0182953
0.0182954
0.0182954
0.0182952
0.0182949
0.0182945
0.0182939
0.0182933
0.0182925
0.0182916
0.0182906
0.0182896
0.0182884
0.0182872
0.0182859
0.0182845
0.0182831
0.0182816
0.01828
0.0182784
0.0182767
0.018275
0.0182732
0.0182714
0.0182696
0.0182677
0.0182658
0.0182638
0.0182619
0.0182599
0.0182579
0.0182558
0.0182538
0.0182517
0.0182496
0.0182475
0.0182454
0.0182433
0.0182412
0.018239
0.0182369
0.0182348
0.0182327
0.0182306
0.0182285
0.0182264
0.0182243
0.0182223
0.0182202
0.0182182
0.0182161
0.0182141
0.0182121
0.0182102
0.0182082
0.0182062
0.0182042
0.0182022
0.0182002
0.0181983
0.0181963
0.0181944
0.0181924
0.0181906
0.0181886
0.018187
0.018185
0.0181837
0.0181818
0.0181806
0.018179
0.0181781
0.0181767
0.0181761
0.0181752
0.0181748
0.0181744
0.0181742
0.0181744
0.0181746
0.0181753
0.0181776
0.00377572
0.0038595
0.00388214
0.00387264
0.0038467
0.00380344
0.00375605
0.003702
0.00365011
0.00359464
0.00354628
0.00349822
0.0034629
0.00343525
0.003422
0.00343074
0.00345976
0.00352382
0.00363126
0.00378327
0.0039879
0.0042505
0.00457032
0.00494698
0.00537308
0.00584296
0.00634313
0.00686593
0.00739803
0.00793269
0.00846064
0.00897697
0.00947603
0.00995627
0.0104143
0.010851
0.0112641
0.0116551
0.0120232
0.0123703
0.0126966
0.0130033
0.0132919
0.0135625
0.0138169
0.0140556
0.0142802
0.0144909
0.0146891
0.0148755
0.0150506
0.0152154
0.0153705
0.0155165
0.0156541
0.0157837
0.015906
0.0160214
0.0161302
0.016233
0.0163301
0.0164219
0.0165086
0.0165907
0.0166683
0.0167419
0.0168116
0.0168775
0.0169401
0.0169994
0.0170556
0.0171089
0.0171596
0.0172076
0.0172532
0.0172966
0.0173378
0.0173769
0.0174141
0.0174495
0.0174831
0.0175151
0.0175455
0.0175745
0.017602
0.0176282
0.0176531
0.0176769
0.0176995
0.0177211
0.0177416
0.0177611
0.0177797
0.0177974
0.0178143
0.0178304
0.0178457
0.0178603
0.0178742
0.0178874
0.0179
0.017912
0.0179234
0.0179343
0.0179446
0.0179545
0.0179638
0.0179727
0.0179812
0.0179893
0.017997
0.0180043
0.0180112
0.0180178
0.018024
0.01803
0.0180356
0.018041
0.018046
0.0180508
0.0180554
0.0180597
0.0180638
0.0180676
0.0180713
0.0180747
0.018078
0.018081
0.0180839
0.0180867
0.0180892
0.0180916
0.0180939
0.018096
0.018098
0.0180998
0.0181016
0.0181032
0.0181047
0.018106
0.0181073
0.0181085
0.0181096
0.0181106
0.0181115
0.0181124
0.0181131
0.0181138
0.0181144
0.018115
0.0181155
0.0181159
0.0181163
0.0181166
0.0181169
0.0181171
0.0181173
0.0181174
0.0181175
0.0181176
0.0181176
0.0181176
0.0181176
0.0181176
0.0181175
0.0181174
0.0181173
0.0181172
0.0181171
0.0181169
0.0181168
0.0181167
0.0181164
0.0181163
0.018116
0.0181158
0.0181154
0.0181152
0.0181149
0.0181147
0.0181143
0.0181141
0.0181137
0.0181136
0.0181133
0.0181133
0.0181131
0.0181133
0.0181132
0.0181137
0.0181138
0.0181147
0.0181151
0.0181162
0.018117
0.0181184
0.0181196
0.0181216
0.0181232
0.0181276
0.00376521
0.00382737
0.00385897
0.00385673
0.00384318
0.00381329
0.00377566
0.00373067
0.00368521
0.00363539
0.00358784
0.00353896
0.00349334
0.00345222
0.00341581
0.00338958
0.00336806
0.00336755
0.00337894
0.00340956
0.00347203
0.00356668
0.00369587
0.00386775
0.00408344
0.00434601
0.0046525
0.00500247
0.0053886
0.00580616
0.00624636
0.00670278
0.00716664
0.0076329
0.00809469
0.00854918
0.00899155
0.00942032
0.00983291
0.0102288
0.0106073
0.0109679
0.0113116
0.0116376
0.0119473
0.0122405
0.0125187
0.0127817
0.013031
0.0132668
0.01349
0.0137011
0.0139011
0.0140903
0.0142695
0.0144393
0.0146001
0.0147527
0.0148971
0.0150342
0.0151643
0.0152878
0.0154051
0.0155165
0.0156224
0.0157231
0.015819
0.0159101
0.0159969
0.0160796
0.0161583
0.0162334
0.0163049
0.0163732
0.0164383
0.0165004
0.0165598
0.0166165
0.0166706
0.0167224
0.0167719
0.0168192
0.0168644
0.0169078
0.0169492
0.0169889
0.0170269
0.0170634
0.0170983
0.0171317
0.0171638
0.0171946
0.0172241
0.0172524
0.0172795
0.0173056
0.0173306
0.0173546
0.0173777
0.0173999
0.0174212
0.0174417
0.0174613
0.0174802
0.0174984
0.0175159
0.0175327
0.0175489
0.0175645
0.0175794
0.0175938
0.0176077
0.0176211
0.0176339
0.0176463
0.0176582
0.0176697
0.0176808
0.0176914
0.0177017
0.0177116
0.0177211
0.0177303
0.0177391
0.0177477
0.0177559
0.0177638
0.0177715
0.0177789
0.017786
0.0177929
0.0177995
0.0178059
0.0178121
0.017818
0.0178238
0.0178293
0.0178347
0.0178399
0.0178449
0.0178497
0.0178543
0.0178589
0.0178632
0.0178674
0.0178715
0.0178754
0.0178792
0.0178829
0.0178864
0.0178899
0.0178932
0.0178964
0.0178996
0.0179026
0.0179055
0.0179083
0.0179111
0.0179138
0.0179164
0.0179189
0.0179213
0.0179237
0.0179261
0.0179283
0.0179306
0.0179327
0.0179348
0.0179369
0.0179389
0.0179409
0.0179428
0.0179447
0.0179466
0.0179483
0.0179501
0.0179517
0.0179534
0.017955
0.0179567
0.0179582
0.0179598
0.0179612
0.0179629
0.0179644
0.0179662
0.0179676
0.0179696
0.0179711
0.0179734
0.017975
0.0179776
0.0179794
0.0179823
0.0179844
0.0179877
0.01799
0.0179938
0.0179965
0.0180032
0.0037587
0.00379754
0.00382985
0.00383367
0.00382763
0.00380975
0.00378128
0.00374521
0.00370685
0.00366418
0.0036211
0.00357652
0.00353166
0.00348904
0.00344607
0.00340878
0.00337324
0.00334536
0.00332449
0.00330954
0.00331137
0.00332341
0.00335169
0.00340569
0.0034833
0.00358884
0.00372598
0.00389859
0.00410625
0.00435079
0.00463001
0.00494249
0.00528298
0.00564786
0.00603077
0.00642729
0.0068313
0.00723865
0.00764476
0.00804615
0.00844059
0.00882494
0.00919878
0.00955988
0.00990831
0.010243
0.0105644
0.0108719
0.0111661
0.0114471
0.0117153
0.011971
0.0122149
0.0124471
0.0126685
0.0128794
0.0130802
0.0132716
0.0134539
0.0136276
0.0137931
0.013951
0.0141014
0.014245
0.0143819
0.0145126
0.0146374
0.0147565
0.0148703
0.0149791
0.0150831
0.0151826
0.0152777
0.0153688
0.0154559
0.0155394
0.0156194
0.015696
0.0157694
0.0158398
0.0159074
0.0159723
0.0160345
0.0160943
0.0161516
0.0162068
0.0162598
0.0163107
0.0163598
0.0164069
0.0164522
0.0164959
0.0165379
0.0165784
0.0166174
0.016655
0.0166912
0.0167261
0.0167598
0.0167923
0.0168236
0.0168539
0.016883
0.0169112
0.0169384
0.0169647
0.0169901
0.0170147
0.0170384
0.0170613
0.0170835
0.017105
0.0171258
0.0171458
0.0171653
0.0171841
0.0172023
0.01722
0.0172371
0.0172536
0.0172697
0.0172852
0.0173003
0.0173149
0.0173291
0.0173429
0.0173562
0.0173691
0.0173817
0.0173939
0.0174058
0.0174173
0.0174284
0.0174393
0.0174498
0.0174601
0.01747
0.0174797
0.0174891
0.0174983
0.0175072
0.0175158
0.0175243
0.0175325
0.0175405
0.0175483
0.0175558
0.0175632
0.0175704
0.0175774
0.0175843
0.0175909
0.0175974
0.0176038
0.01761
0.017616
0.0176219
0.0176277
0.0176333
0.0176388
0.0176442
0.0176494
0.0176546
0.0176596
0.0176646
0.0176694
0.0176742
0.0176789
0.0176834
0.0176879
0.0176923
0.0176967
0.0177009
0.0177051
0.0177092
0.0177132
0.0177171
0.017721
0.0177248
0.0177286
0.0177322
0.017736
0.0177394
0.0177432
0.0177466
0.0177504
0.0177538
0.0177577
0.0177611
0.0177652
0.0177686
0.0177731
0.0177766
0.0177814
0.017785
0.0177902
0.0177939
0.0177997
0.0178036
0.0178128
0.00375413
0.00377374
0.0037992
0.00380679
0.00380454
0.00379517
0.00377559
0.00374748
0.00371605
0.00368045
0.00364298
0.00360383
0.003563
0.00352292
0.00348153
0.00344246
0.00340353
0.00336709
0.00333509
0.00330541
0.00328195
0.00326449
0.00325282
0.00325454
0.00326443
0.00328734
0.00332969
0.00339089
0.00347215
0.0035783
0.00371061
0.00387126
0.00406019
0.00427824
0.00452388
0.00479565
0.0050904
0.00540494
0.00573558
0.00607794
0.00642905
0.00678417
0.0071412
0.00749638
0.00784812
0.00819384
0.00853259
0.00886265
0.00918356
0.00949442
0.00979506
0.010085
0.0103645
0.0106332
0.0108914
0.0111394
0.0113773
0.0116056
0.0118243
0.0120339
0.0122347
0.0124272
0.0126115
0.0127881
0.0129573
0.0131193
0.0132748
0.0134237
0.0135664
0.0137033
0.0138345
0.0139605
0.0140813
0.0141973
0.0143086
0.0144156
0.0145183
0.014617
0.0147119
0.0148031
0.0148908
0.0149753
0.0150565
0.0151347
0.01521
0.0152825
0.0153523
0.0154197
0.0154846
0.0155472
0.0156076
0.0156658
0.0157221
0.0157764
0.0158288
0.0158794
0.0159284
0.0159757
0.0160214
0.0160656
0.0161084
0.0161497
0.0161898
0.0162285
0.016266
0.0163024
0.0163376
0.0163717
0.0164047
0.0164368
0.0164678
0.0164979
0.0165272
0.0165555
0.016583
0.0166097
0.0166357
0.0166609
0.0166853
0.0167091
0.0167322
0.0167546
0.0167764
0.0167976
0.0168183
0.0168383
0.0168579
0.0168769
0.0168954
0.0169134
0.0169309
0.016948
0.0169646
0.0169808
0.0169966
0.017012
0.017027
0.0170416
0.0170558
0.0170698
0.0170833
0.0170966
0.0171095
0.0171221
0.0171344
0.0171465
0.0171582
0.0171697
0.0171809
0.0171919
0.0172026
0.0172131
0.0172233
0.0172333
0.0172431
0.0172527
0.0172621
0.0172713
0.0172803
0.0172891
0.0172978
0.0173063
0.0173146
0.0173227
0.0173307
0.0173386
0.0173463
0.0173539
0.0173613
0.0173686
0.0173758
0.0173829
0.0173898
0.0173967
0.0174033
0.0174099
0.0174164
0.0174228
0.017429
0.0174353
0.0174413
0.0174474
0.0174533
0.0174593
0.017465
0.017471
0.0174766
0.0174827
0.0174882
0.0174944
0.0174999
0.0175064
0.0175118
0.0175187
0.017524
0.0175314
0.0175366
0.0175447
0.0175498
0.0175618
0.00375061
0.00375654
0.00377091
0.00377849
0.00377797
0.00377302
0.00376073
0.00373979
0.00371455
0.00368543
0.00365368
0.00362002
0.00358418
0.00354804
0.00351038
0.00347315
0.00343583
0.00339876
0.00336374
0.00332934
0.00329757
0.00326953
0.00324373
0.00322299
0.00320773
0.00319647
0.00319694
0.00320339
0.00321919
0.00325017
0.0032951
0.00335574
0.00343402
0.00353254
0.00365236
0.00379453
0.00395964
0.00414767
0.00435835
0.00458977
0.00484096
0.00510864
0.00539114
0.00568485
0.00598767
0.00629629
0.00660868
0.00692205
0.00723481
0.00754486
0.00785105
0.00815197
0.00844679
0.00873465
0.00901503
0.0092876
0.00955188
0.00980808
0.0100558
0.0102953
0.0105264
0.0107494
0.0109644
0.0111716
0.0113713
0.0115636
0.0117488
0.0119271
0.0120988
0.012264
0.0124231
0.0125762
0.0127237
0.0128657
0.0130025
0.0131342
0.0132611
0.0133834
0.0135012
0.0136148
0.0137243
0.01383
0.0139318
0.0140301
0.014125
0.0142166
0.014305
0.0143904
0.0144728
0.0145525
0.0146296
0.0147041
0.0147761