/*--------------------------------*- C++ -*----------------------------------*\
  =========                 |
  \\      /  F ield         | OpenFOAM: The Open Source CFD Toolbox
   \\    /   O peration     | Website:  https://openfoam.org
    \\  /    A nd           | Version:  12
     \\/     M anipulation  |
\*---------------------------------------------------------------------------*/
FoamFile
{
    format      ascii;
    class       surfaceScalarField;
    location    "600";
    object      phi;
}
// * * * * * * * * * * * * * * * * * * * * * * * * * * * * * * * * * * * * * //

dimensions      [0 3 -1 0 0 0 0];

internalField   nonuniform List<scalar> 
39700
(
0.000289049
0.000218413
0.000158807
0.000130242
0.000114181
4.46259e-05
9.67876e-05
1.73935e-05
8.76351e-05
9.15258e-06
8.18537e-05
5.78143e-06
7.8063e-05
3.79058e-06
7.53634e-05
2.69964e-06
7.33125e-05
2.05106e-06
7.16109e-05
1.70165e-06
7.01856e-05
1.42525e-06
6.89797e-05
1.20577e-06
6.79004e-05
1.07919e-06
6.69879e-05
9.12427e-07
6.61914e-05
7.96497e-07
6.54746e-05
7.16871e-07
6.48182e-05
6.56322e-07
6.42106e-05
6.076e-07
6.36448e-05
5.65766e-07
6.31251e-05
5.19677e-07
6.2635e-05
4.90085e-07
6.2173e-05
4.62073e-07
6.17357e-05
4.37296e-07
6.13243e-05
4.11356e-07
6.09369e-05
3.87403e-07
6.05639e-05
3.72983e-07
6.02098e-05
3.54114e-07
5.98682e-05
3.41622e-07
5.95425e-05
3.25676e-07
5.92287e-05
3.13825e-07
5.89285e-05
3.00105e-07
5.86374e-05
2.91197e-07
5.83578e-05
2.79548e-07
5.80882e-05
2.69661e-07
5.78266e-05
2.616e-07
5.75736e-05
2.53012e-07
5.73303e-05
2.43269e-07
5.70932e-05
2.37114e-07
5.68636e-05
2.29535e-07
5.66413e-05
2.22344e-07
5.64243e-05
2.16985e-07
5.62148e-05
2.09556e-07
5.60099e-05
2.04891e-07
5.5812e-05
1.97829e-07
5.56186e-05
1.93474e-07
5.54304e-05
1.8814e-07
5.52462e-05
1.84195e-07
5.50677e-05
1.78505e-07
5.48926e-05
1.75188e-07
5.47227e-05
1.69823e-07
5.45565e-05
1.66227e-07
5.43944e-05
1.62113e-07
5.42356e-05
1.58834e-07
5.40809e-05
1.54705e-07
5.39295e-05
1.51361e-07
5.37818e-05
1.47749e-07
5.36373e-05
1.44508e-07
5.34956e-05
1.4169e-07
5.33573e-05
1.38277e-07
5.32218e-05
1.35577e-07
5.30893e-05
1.32499e-07
5.29593e-05
1.29932e-07
5.28321e-05
1.2719e-07
5.27077e-05
1.24489e-07
5.25852e-05
1.22412e-07
5.24656e-05
1.19631e-07
5.23481e-05
1.17557e-07
5.22332e-05
1.14899e-07
5.21202e-05
1.1299e-07
5.20096e-05
1.10601e-07
5.19009e-05
1.0866e-07
5.17943e-05
1.0659e-07
5.16895e-05
1.04799e-07
5.15868e-05
1.02718e-07
5.14858e-05
1.00949e-07
5.13868e-05
9.90565e-08
5.12894e-05
9.73111e-08
5.11939e-05
9.55639e-08
5.11001e-05
9.37933e-08
5.10077e-05
9.23639e-08
5.09171e-05
9.06251e-08
5.08279e-05
8.92099e-08
5.07403e-05
8.75532e-08
5.06541e-05
8.62102e-08
5.05695e-05
8.46476e-08
5.04862e-05
8.32994e-08
5.04043e-05
8.19076e-08
5.03237e-05
8.05222e-08
5.02444e-05
7.93277e-08
5.01664e-05
7.79612e-08
5.00896e-05
7.68008e-08
5.00141e-05
7.5499e-08
4.99398e-05
7.43774e-08
4.98666e-05
7.31644e-08
4.97946e-05
7.2029e-08
4.97236e-05
7.09312e-08
4.96539e-05
6.97803e-08
4.9585e-05
6.88333e-08
4.95173e-05
6.76971e-08
4.94505e-05
6.67726e-08
4.93849e-05
6.5673e-08
4.93201e-05
6.47883e-08
4.92563e-05
6.37282e-08
4.91935e-05
6.28728e-08
4.91316e-05
6.18836e-08
4.90706e-05
6.10159e-08
4.90104e-05
6.0138e-08
4.89512e-05
5.92212e-08
4.88927e-05
5.84735e-08
4.88352e-05
5.75393e-08
4.87783e-05
5.68268e-08
4.87224e-05
5.59127e-08
4.86672e-05
5.52418e-08
4.86128e-05
5.43487e-08
4.85591e-05
5.37121e-08
4.85063e-05
5.28509e-08
4.8454e-05
5.22183e-08
4.84026e-05
5.1423e-08
4.83518e-05
5.07811e-08
4.83018e-05
5.00496e-08
4.82523e-05
4.94277e-08
4.82036e-05
4.8709e-08
4.81555e-05
4.81093e-08
4.81081e-05
4.74032e-08
4.80613e-05
4.68315e-08
4.80151e-05
4.61558e-08
4.79695e-05
4.55922e-08
4.79246e-05
4.49592e-08
4.78802e-05
4.4384e-08
4.78364e-05
4.38117e-08
4.77931e-05
4.3217e-08
4.77504e-05
4.27058e-08
4.77083e-05
4.21061e-08
4.76667e-05
4.1617e-08
4.76257e-05
4.10262e-08
4.75851e-05
4.05629e-08
4.75451e-05
3.99815e-08
4.75056e-05
3.95398e-08
4.74666e-05
3.89748e-08
4.7428e-05
3.8545e-08
4.739e-05
3.80051e-08
4.73525e-05
3.75762e-08
4.73154e-05
3.70711e-08
4.72787e-05
3.66403e-08
4.72426e-05
3.61665e-08
4.72068e-05
3.57476e-08
4.71715e-05
3.5281e-08
4.71367e-05
3.48812e-08
4.71022e-05
3.442e-08
4.70682e-05
3.40369e-08
4.70346e-05
3.35912e-08
4.70014e-05
3.32165e-08
4.69686e-05
3.27822e-08
4.69362e-05
3.24165e-08
4.69042e-05
3.20136e-08
4.68725e-05
3.16332e-08
4.68413e-05
3.12534e-08
4.68104e-05
3.08744e-08
4.67799e-05
3.05299e-08
4.67497e-05
3.01493e-08
4.67199e-05
2.98015e-08
4.66905e-05
2.9421e-08
4.66614e-05
2.90978e-08
4.66327e-05
2.87456e-08
4.66042e-05
2.8428e-08
4.65762e-05
2.80766e-08
4.65484e-05
2.77789e-08
4.65209e-05
2.74536e-08
4.64938e-05
2.71425e-08
4.64669e-05
2.68472e-08
4.64404e-05
2.65659e-08
4.6414e-05
2.63319e-08
4.6388e-05
2.60688e-08
4.63621e-05
2.58913e-08
4.63365e-05
2.55916e-08
4.63111e-05
2.54351e-08
4.6286e-05
2.51002e-08
4.62609e-05
2.50728e-08
4.62363e-05
2.46559e-08
4.62115e-05
2.4781e-08
4.61873e-05
2.42127e-08
4.61627e-05
2.45713e-08
4.6139e-05
2.36797e-08
4.61146e-05
2.43995e-08
4.60915e-05
2.30645e-08
4.60671e-05
2.44271e-08
4.60448e-05
2.23378e-08
4.60201e-05
2.47039e-08
4.59987e-05
2.13534e-08
4.59733e-05
2.53756e-08
4.59533e-05
2.00372e-08
4.59263e-05
2.69798e-08
4.5908e-05
1.82785e-08
4.58787e-05
2.92342e-08
4.58621e-05
1.66654e-08
4.58304e-05
3.16024e-08
4.58154e-05
1.5048e-08
4.57799e-05
3.54563e-08
4.57759e-05
4.02989e-09
1.14698e-07
0.000488266
0.000262025
0.000397813
0.000220694
0.00032664
0.000115799
0.000282375
6.16575e-05
0.000254844
3.66841e-05
0.000236497
2.41282e-05
0.000223522
1.6765e-05
0.00021378
1.24424e-05
0.000206134
9.69719e-06
0.000199858
7.97774e-06
0.000194621
6.66167e-06
0.000190197
5.63008e-06
0.000186355
4.9209e-06
0.000183052
4.21551e-06
0.000180164
3.68467e-06
0.000177589
3.29194e-06
0.000175267
2.97799e-06
0.00017316
2.71503e-06
0.00017123
2.49498e-06
0.000169467
2.283e-06
0.000167834
2.12327e-06
0.000166319
1.97736e-06
0.000164904
1.85221e-06
0.000163586
1.72921e-06
0.000162354
1.61921e-06
0.000161189
1.53818e-06
0.00016009
1.45268e-06
0.000159047
1.38465e-06
0.00015806
1.31299e-06
0.000157121
1.25315e-06
0.000156226
1.19416e-06
0.00015537
1.14725e-06
0.000154554
1.09631e-06
0.000153772
1.05122e-06
0.000153021
1.01264e-06
0.0001523
9.74254e-07
0.000151608
9.34624e-07
0.000150941
9.04561e-07
0.000150298
8.72106e-07
0.000149679
8.41615e-07
0.00014908
8.16483e-07
0.000148502
7.87582e-07
0.000147941
7.65207e-07
0.000147401
7.38559e-07
0.000146876
7.18105e-07
0.000146367
6.97031e-07
0.000145872
6.78868e-07
0.000145393
6.57719e-07
0.000144927
6.41926e-07
0.000144474
6.22291e-07
0.000144034
6.06608e-07
0.000143605
5.90668e-07
0.000143187
5.76755e-07
0.000142781
5.61133e-07
0.000142385
5.476e-07
0.000141999
5.33782e-07
0.000141622
5.20983e-07
0.000141254
5.09474e-07
0.000140896
4.96882e-07
0.000140545
4.86022e-07
0.000140203
4.7453e-07
0.000139869
4.64392e-07
0.000139542
4.53985e-07
0.000139223
4.43901e-07
0.00013891
4.35335e-07
0.000138604
4.25449e-07
0.000138304
4.17126e-07
0.000138011
4.07734e-07
0.000137724
4.00025e-07
0.000137443
3.91492e-07
0.000137168
3.83948e-07
0.000136898
3.76345e-07
0.000136634
3.69461e-07
0.000136374
3.62003e-07
0.00013612
3.55297e-07
0.000135871
3.48428e-07
0.000135626
3.41955e-07
0.000135386
3.35544e-07
0.000135151
3.29179e-07
0.000134919
3.2363e-07
0.000134692
3.17552e-07
0.00013447
3.12183e-07
0.000134251
3.06365e-07
0.000134036
3.01283e-07
0.000133824
2.95786e-07
0.000133617
2.90806e-07
0.000133413
2.85799e-07
0.000133213
2.8085e-07
0.000133016
2.76391e-07
0.000132822
2.7162e-07
0.000132632
2.67323e-07
0.000132444
2.62768e-07
0.00013226
2.58649e-07
0.000132079
2.54365e-07
0.000131901
2.50298e-07
0.000131725
2.4634e-07
0.000131553
2.42323e-07
0.000131383
2.38769e-07
0.000131215
2.34887e-07
0.000131051
2.3146e-07
0.000130889
2.27701e-07
0.000130729
2.24421e-07
0.000130572
2.20797e-07
0.000130417
2.17651e-07
0.000130265
2.14233e-07
0.000130115
2.11124e-07
0.000129967
2.08002e-07
0.000129821
2.04842e-07
0.000129678
2.0206e-07
0.000129536
1.98932e-07
0.000129397
1.96257e-07
0.00012926
1.93217e-07
0.000129124
1.90678e-07
0.000128991
1.87724e-07
0.000128859
1.85309e-07
0.00012873
1.82462e-07
0.000128602
1.80092e-07
0.000128476
1.77431e-07
0.000128351
1.75082e-07
0.000128229
1.72599e-07
0.000128108
1.70347e-07
0.000127989
1.67914e-07
0.000127871
1.65741e-07
0.000127755
1.63364e-07
0.000127641
1.61287e-07
0.000127528
1.59005e-07
0.000127416
1.5698e-07
0.000127306
1.54816e-07
0.000127198
1.52798e-07
0.000127091
1.50793e-07
0.000126986
1.48764e-07
0.000126881
1.46918e-07
0.000126779
1.44914e-07
0.000126677
1.43134e-07
0.000126577
1.41172e-07
0.000126478
1.39472e-07
0.00012638
1.37553e-07
0.000126284
1.35925e-07
0.000126189
1.34062e-07
0.000126095
1.32482e-07
0.000126002
1.30696e-07
0.000125911
1.29139e-07
0.00012582
1.27449e-07
0.000125731
1.2591e-07
0.000125643
1.24311e-07
0.000125556
1.22822e-07
0.00012547
1.21253e-07
0.000125385
1.19826e-07
0.000125301
1.18284e-07
0.000125218
1.16911e-07
0.000125136
1.15422e-07
0.000125055
1.14084e-07
0.000124976
1.12631e-07
0.000124897
1.11338e-07
0.000124819
1.09971e-07
0.000124742
1.08653e-07
0.000124666
1.07349e-07
0.00012459
1.06059e-07
0.000124516
1.04847e-07
0.000124443
1.03566e-07
0.00012437
1.02356e-07
0.000124298
1.01084e-07
0.000124228
9.99423e-08
0.000124158
9.87522e-08
0.000124088
9.76435e-08
0.00012402
9.64612e-08
0.000123952
9.54157e-08
0.000123886
9.43043e-08
0.000123819
9.32518e-08
0.000123754
9.22181e-08
0.000123689
9.12718e-08
0.000123625
9.03919e-08
0.000123562
8.95515e-08
0.000123499
8.88014e-08
0.000123437
8.79253e-08
0.000123375
8.71799e-08
0.000123314
8.6311e-08
0.000123253
8.58158e-08
0.000123193
8.48915e-08
0.000123133
8.46418e-08
0.000123073
8.35572e-08
0.000123014
8.36556e-08
0.000122956
8.20899e-08
0.000122898
8.2711e-08
0.00012284
8.0537e-08
0.000122782
8.21872e-08
0.000122726
7.89017e-08
0.000122668
8.21888e-08
0.000122613
7.68246e-08
0.000122555
8.30333e-08
0.000122501
7.41502e-08
0.000122442
8.63415e-08
0.000122389
7.05467e-08
0.000122327
9.13553e-08
0.000122276
6.78188e-08
0.000122211
9.64364e-08
0.000122158
6.79944e-08
0.00012209
1.03639e-07
0.000122042
5.21139e-08
2.67923e-07
0.000561758
0.000257735
0.000533662
0.000248791
0.000488961
0.0001605
0.000442261
0.000108358
0.000405035
7.39097e-05
0.000376227
5.29362e-05
0.000353823
3.91695e-05
0.000336074
3.01912e-05
0.000321763
2.40088e-05
0.00030997
1.97703e-05
0.000300108
1.65236e-05
0.000291758
1.398e-05
0.000284579
1.20996e-05
0.000278356
1.04387e-05
0.000272902
9.13876e-06
0.000268058
8.13627e-06
0.000263724
7.31124e-06
0.000259823
6.61657e-06
0.00025628
6.03825e-06
0.000253055
5.50793e-06
0.000250095
5.08326e-06
0.00024737
4.70236e-06
0.000244845
4.37668e-06
0.000242506
4.06815e-06
0.000240331
3.79486e-06
0.000238291
3.5781e-06
0.000236379
3.36462e-06
0.000234578
3.1858e-06
0.000232882
3.00816e-06
0.000231279
2.85614e-06
0.000229761
2.71297e-06
0.000228317
2.59053e-06
0.000226947
2.46701e-06
0.000225641
2.35634e-06
0.000224395
2.25904e-06
0.000223203
2.16586e-06
0.000222065
2.07342e-06
0.000220972
1.99746e-06
0.000219924
1.92004e-06
0.000218918
1.84765e-06
0.000217949
1.78576e-06
0.000217017
1.71956e-06
0.000216117
1.66438e-06
0.000215251
1.60449e-06
0.000214415
1.55473e-06
0.000213606
1.50587e-06
0.000212823
1.46196e-06
0.000212066
1.41476e-06
0.000211332
1.37624e-06
0.000210621
1.33296e-06
0.000209931
1.29608e-06
0.000209262
1.25995e-06
0.000208612
1.22734e-06
0.00020798
1.19266e-06
0.000207366
1.16176e-06
0.000206769
1.13095e-06
0.000206188
1.10198e-06
0.000205622
1.07561e-06
0.00020507
1.04804e-06
0.000204533
1.02342e-06
0.000204009
9.98181e-07
0.000203498
9.75352e-07
0.000203
9.52423e-07
0.000202514
9.30264e-07
0.000202038
9.10704e-07
0.000201574
8.89532e-07
0.00020112
8.70848e-07
0.000200677
8.50838e-07
0.000200244
8.33494e-07
0.00019982
8.15233e-07
0.000199406
7.98546e-07
0.000199
7.82073e-07
0.000198602
7.66896e-07
0.000198213
7.50984e-07
0.000197832
7.36343e-07
0.000197459
7.21624e-07
0.000197093
7.07632e-07
0.000196735
6.93881e-07
0.000196384
6.80305e-07
0.000196039
6.68106e-07
0.000195702
6.55323e-07
0.00019537
6.43658e-07
0.000195045
6.31429e-07
0.000194726
6.20404e-07
0.000194413
6.08865e-07
0.000194106
5.98182e-07
0.000193804
5.87579e-07
0.000193508
5.77122e-07
0.000193216
5.67525e-07
0.00019293
5.57557e-07
0.000192649
5.48358e-07
0.000192373
5.38847e-07
0.000192102
5.30064e-07
0.000191835
5.21098e-07
0.000191573
5.12524e-07
0.000191315
5.0418e-07
0.000191062
4.95809e-07
0.000190812
4.88184e-07
0.000190567
4.80183e-07
0.000190326
4.7288e-07
0.000190088
4.65144e-07
0.000189854
4.5816e-07
0.000189624
4.50714e-07
0.000189398
4.44038e-07
0.000189175
4.36993e-07
0.000188956
4.30466e-07
0.00018874
4.23955e-07
0.000188527
4.17438e-07
0.000188318
4.11521e-07
0.000188112
4.05162e-07
0.000187908
3.99469e-07
0.000187708
3.93311e-07
0.000187511
3.87894e-07
0.000187317
3.81933e-07
0.000187125
3.76772e-07
0.000186937
3.71036e-07
0.000186751
3.66002e-07
0.000186568
3.60611e-07
0.000186387
3.55671e-07
0.000186209
3.50606e-07
0.000186034
3.4589e-07
0.000185861
3.40943e-07
0.00018569
3.36397e-07
0.000185522
3.31583e-07
0.000185356
3.27233e-07
0.000185192
3.22604e-07
0.000185031
3.18385e-07
0.000184872
3.13978e-07
0.000184715
3.09814e-07
0.00018456
3.05687e-07
0.000184407
3.01555e-07
0.000184256
2.97707e-07
0.000184107
2.93665e-07
0.000183961
2.89949e-07
0.000183816
2.86006e-07
0.000183673
2.82448e-07
0.000183532
2.78605e-07
0.000183392
2.75189e-07
0.000183255
2.71464e-07
0.000183119
2.68156e-07
0.000182985
2.64578e-07
0.000182853
2.61336e-07
0.000182723
2.57934e-07
0.000182594
2.54751e-07
0.000182467
2.51518e-07
0.000182341
2.4845e-07
0.000182217
2.45287e-07
0.000182095
2.42337e-07
0.000181974
2.39242e-07
0.000181854
2.36403e-07
0.000181736
2.33412e-07
0.00018162
2.30652e-07
0.000181504
2.27739e-07
0.000181391
2.25074e-07
0.000181278
2.22316e-07
0.000181167
2.19636e-07
0.000181058
2.16992e-07
0.000180949
2.14382e-07
0.000180842
2.11899e-07
0.000180737
2.09327e-07
0.000180632
2.06866e-07
0.000180529
2.04326e-07
0.000180427
2.01986e-07
0.000180326
1.99588e-07
0.000180226
1.97329e-07
0.000180128
1.94959e-07
0.00018003
1.92819e-07
0.000179934
1.90577e-07
0.000179839
1.88466e-07
0.000179745
1.86358e-07
0.000179652
1.84452e-07
0.000179559
1.82595e-07
0.000179468
1.80919e-07
0.000179378
1.79262e-07
0.000179288
1.7761e-07
0.000179199
1.75939e-07
0.000179111
1.744e-07
0.000179024
1.73058e-07
0.000178937
1.71586e-07
0.000178851
1.7052e-07
0.000178766
1.6901e-07
0.000178681
1.68295e-07
0.000178597
1.66344e-07
0.000178513
1.66137e-07
0.00017843
1.63678e-07
0.000178348
1.64616e-07
0.000178266
1.61067e-07
0.000178184
1.63899e-07
0.000178103
1.57957e-07
0.000178021
1.64503e-07
0.000177941
1.54129e-07
0.000177859
1.68935e-07
0.00017778
1.49256e-07
0.000177695
1.76785e-07
0.000177617
1.45847e-07
0.000177528
1.8466e-07
0.000177446
1.50102e-07
0.000177356
1.94069e-07
0.000177272
1.36372e-07
4.21979e-07
0.000603275
0.000238748
0.000602013
0.000250053
0.000586362
0.000176152
0.000559304
0.000135416
0.000528239
0.000104975
0.000498888
8.22871e-05
0.000472617
6.54402e-05
0.000449703
5.3105e-05
0.000430055
4.36571e-05
0.00041327
3.65555e-05
0.000398898
3.08958e-05
0.000386511
2.63662e-05
0.000375763
2.28481e-05
0.000366352
1.98498e-05
0.000358051
1.74391e-05
0.000350673
1.55141e-05
0.000344084
1.39002e-05
0.00033816
1.25408e-05
0.000332796
1.14025e-05
0.000327922
1.03818e-05
0.000323467
9.5384e-06
0.000319379
8.78978e-06
0.000315608
8.14789e-06
0.000312123
7.55301e-06
0.000308889
7.02873e-06
0.000305871
6.59618e-06
0.000303053
6.18301e-06
0.000300409
5.82991e-06
0.000297929
5.48835e-06
0.000295592
5.19316e-06
0.000293384
4.92032e-06
0.000291295
4.67939e-06
0.000289317
4.44496e-06
0.00028744
4.23388e-06
0.000285654
4.04518e-06
0.000283951
3.86877e-06
0.000282327
3.69736e-06
0.000280774
3.55009e-06
0.000279289
3.40484e-06
0.000277868
3.26948e-06
0.000276502
3.15151e-06
0.000275192
3.02984e-06
0.000273931
2.92494e-06
0.000272719
2.81638e-06
0.000271551
2.7226e-06
0.000270425
2.6321e-06
0.000269338
2.54954e-06
0.000268288
2.46434e-06
0.000267273
2.39168e-06
0.000266291
2.3142e-06
0.000265341
2.24613e-06
0.000264421
2.18043e-06
0.000263528
2.12012e-06
0.000262663
2.05804e-06
0.000261823
2.00187e-06
0.000261007
1.94657e-06
0.000260215
1.89418e-06
0.000259444
1.84616e-06
0.000258695
1.79725e-06
0.000257966
1.75277e-06
0.000257256
1.70795e-06
0.000256564
1.66685e-06
0.000255891
1.62613e-06
0.000255234
1.58679e-06
0.000254593
1.55136e-06
0.000253969
1.51434e-06
0.000253359
1.48089e-06
0.000252763
1.44606e-06
0.000252182
1.415e-06
0.000251614
1.38315e-06
0.000251059
1.35356e-06
0.000250516
1.32462e-06
0.000249986
1.29773e-06
0.000249466
1.27008e-06
0.000248958
1.24433e-06
0.000248461
1.21871e-06
0.000247975
1.19424e-06
0.000247498
1.17033e-06
0.000247032
1.14679e-06
0.000246575
1.12528e-06
0.000246127
1.10329e-06
0.000245687
1.08287e-06
0.000245257
1.06187e-06
0.000244835
1.0426e-06
0.000244421
1.02281e-06
0.000244015
1.00428e-06
0.000243616
9.86013e-07
0.000243225
9.68029e-07
0.000242842
9.51348e-07
0.000242465
9.34312e-07
0.000242095
9.18389e-07
0.000241732
9.02159e-07
0.000241375
8.86993e-07
0.000241024
8.71682e-07
0.00024068
8.56982e-07
0.000240341
8.42686e-07
0.000240008
8.28426e-07
0.000239681
8.15236e-07
0.00023936
8.01695e-07
0.000239044
7.89122e-07
0.000238733
7.76054e-07
0.000238427
7.64039e-07
0.000238126
7.51487e-07
0.00023783
7.40024e-07
0.000237539
7.28133e-07
0.000237252
7.16994e-07
0.00023697
7.05936e-07
0.000236693
6.94932e-07
0.00023642
6.84776e-07
0.000236151
6.74124e-07
0.000235886
6.64358e-07
0.000235625
6.54072e-07
0.000235368
6.44771e-07
0.000235115
6.34842e-07
0.000234866
6.25977e-07
0.000234621
6.16435e-07
0.000234379
6.0782e-07
0.000234141
5.98824e-07
0.000233906
5.9042e-07
0.000233675
5.81934e-07
0.000233446
5.73928e-07
0.000233222
5.6566e-07
0.000233
5.57954e-07
0.000232782
5.49934e-07
0.000232567
5.42554e-07
0.000232354
5.34843e-07
0.000232145
5.27702e-07
0.000231939
5.20345e-07
0.000231735
5.1334e-07
0.000231534
5.06412e-07
0.000231336
4.99512e-07
0.000231141
4.93008e-07
0.000230948
4.86296e-07
0.000230758
4.80015e-07
0.000230571
4.73485e-07
0.000230386
4.67462e-07
0.000230203
4.61112e-07
0.000230023
4.55326e-07
0.000229846
4.49178e-07
0.00022967
4.4358e-07
0.000229497
4.37672e-07
0.000229326
4.32204e-07
0.000229157
4.26571e-07
0.000228991
4.21226e-07
0.000228827
4.15858e-07
0.000228664
4.10714e-07
0.000228504
4.05476e-07
0.000228346
4.00524e-07
0.00022819
3.95412e-07
0.000228036
3.90646e-07
0.000227883
3.85704e-07
0.000227733
3.8108e-07
0.000227584
3.76277e-07
0.000227438
3.71809e-07
0.000227293
3.67242e-07
0.00022715
3.62792e-07
0.000227008
3.58407e-07
0.000226868
3.54079e-07
0.00022673
3.49933e-07
0.000226594
3.45693e-07
0.000226459
3.41608e-07
0.000226326
3.37436e-07
0.000226195
3.33535e-07
0.000226065
3.29569e-07
0.000225936
3.25811e-07
0.000225809
3.21914e-07
0.000225684
3.18346e-07
0.00022556
3.1464e-07
0.000225437
3.11164e-07
0.000225316
3.07664e-07
0.000225196
3.04508e-07
0.000225077
3.01355e-07
0.000224959
2.98573e-07
0.000224843
2.95698e-07
0.000224727
2.93051e-07
0.000224613
2.90159e-07
0.0002245
2.87775e-07
0.000224387
2.85266e-07
0.000224276
2.83133e-07
0.000224166
2.80902e-07
0.000224056
2.78935e-07
0.000223947
2.77007e-07
0.000223839
2.74762e-07
0.000223731
2.73254e-07
0.000223624
2.70745e-07
0.000223519
2.70362e-07
0.000223413
2.66975e-07
0.000223308
2.68581e-07
0.000223203
2.62749e-07
0.000223099
2.68642e-07
0.000222995
2.57803e-07
0.000222891
2.73729e-07
0.000222788
2.51956e-07
0.000222681
2.84017e-07
0.000222578
2.48208e-07
0.000222468
2.95346e-07
0.000222361
2.57057e-07
0.000222248
3.06942e-07
0.000222135
2.48874e-07
5.828e-07
0.000634308
0.000216842
0.00064405
0.000240311
0.000640935
0.000179266
0.000631422
0.000144929
0.00061491
0.000121487
0.000594921
0.000102276
0.000573629
8.6732e-05
0.000552226
7.45088e-05
0.000531713
6.417e-05
0.000512658
5.561e-05
0.000495359
4.81951e-05
0.00047981
4.19151e-05
0.00046592
3.67381e-05
0.000453521
3.22486e-05
0.000442426
2.85338e-05
0.000432475
2.54656e-05
0.000423538
2.2837e-05
0.000415468
2.06109e-05
0.000408142
1.87284e-05
0.000401477
1.70468e-05
0.000395385
1.56303e-05
0.000389794
1.43811e-05
0.000384641
1.33011e-05
0.00037988
1.23136e-05
0.000375466
1.14429e-05
0.000371356
1.07062e-05
0.000367525
1.00141e-05
0.000363939
9.41605e-06
0.000360581
8.84609e-06
0.000357424
8.35052e-06
0.000354448
7.8961e-06
0.000351639
7.48859e-06
0.000348984
7.10004e-06
0.000346468
6.74918e-06
0.000344081
6.43228e-06
0.00034181
6.14015e-06
0.000339647
5.85991e-06
0.000337585
5.61276e-06
0.000335616
5.37368e-06
0.000333734
5.15154e-06
0.00033193
4.95548e-06
0.000330202
4.75752e-06
0.000328543
4.58389e-06
0.00032695
4.40927e-06
0.000325418
4.25473e-06
0.000323943
4.10676e-06
0.000322522
3.97102e-06
0.000321152
3.83424e-06
0.000319829
3.71456e-06
0.000318552
3.59092e-06
0.000317318
3.48052e-06
0.000316124
3.37461e-06
0.000314968
3.27647e-06
0.000313848
3.17762e-06
0.000312763
3.08726e-06
0.00031171
2.99904e-06
0.000310689
2.91511e-06
0.000309698
2.83785e-06
0.000308734
2.76045e-06
0.000307798
2.6893e-06
0.000306887
2.6184e-06
0.000306001
2.55279e-06
0.000305139
2.48841e-06
0.0003043
2.4262e-06
0.000303482
2.3695e-06
0.000302684
2.31153e-06
0.000301907
2.25842e-06
0.000301149
2.20411e-06
0.000300409
2.15484e-06
0.000299687
2.10509e-06
0.000298982
2.05845e-06
0.000298294
2.0131e-06
0.000297621
1.9707e-06
0.000296963
1.92767e-06
0.00029632
1.88733e-06
0.000295691
1.84745e-06
0.000295076
1.80927e-06
0.000294475
1.77211e-06
0.000293886
1.73557e-06
0.000293309
1.70185e-06
0.000292745
1.66789e-06
0.000292191
1.63605e-06
0.00029165
1.60368e-06
0.000291119
1.57367e-06
0.000290598
1.54322e-06
0.000290088
1.51449e-06
0.000289588
1.48632e-06
0.000289097
1.45861e-06
0.000288616
1.43273e-06
0.000288143
1.40659e-06
0.00028768
1.38197e-06
0.000287225
1.3571e-06
0.000286778
1.3337e-06
0.00028634
1.31024e-06
0.000285909
1.28766e-06
0.000285486
1.26573e-06
0.00028507
1.24392e-06
0.000284662
1.22356e-06
0.000284261
1.20294e-06
0.000283866
1.1836e-06
0.000283479
1.16373e-06
0.000283097
1.14526e-06
0.000282723
1.12622e-06
0.000282354
1.10863e-06
0.000281992
1.09058e-06
0.000281635
1.07356e-06
0.000281284
1.05671e-06
0.000280939
1.04001e-06
0.0002806
1.02443e-06
0.000280265
1.00835e-06
0.000279936
9.9339e-07
0.000279612
9.7789e-07
0.000279294
9.63641e-07
0.00027898
9.48712e-07
0.000278671
9.35128e-07
0.000278366
9.20798e-07
0.000278066
9.07634e-07
0.000277771
8.94097e-07
0.00027748
8.81306e-07
0.000277194
8.68509e-07
0.000276911
8.56334e-07
0.000276633
8.43889e-07
0.000276359
8.32188e-07
0.000276089
8.20148e-07
0.000275822
8.08939e-07
0.00027556
7.97364e-07
0.000275301
7.86536e-07
0.000275046
7.75483e-07
0.000274794
7.64902e-07
0.000274546
7.54458e-07
0.000274301
7.44088e-07
0.00027406
7.34238e-07
0.000273822
7.24187e-07
0.000273588
7.14682e-07
0.000273356
7.04922e-07
0.000273128
6.95802e-07
0.000272903
6.86328e-07
0.00027268
6.77563e-07
0.000272461
6.684e-07
0.000272245
6.59926e-07
0.000272031
6.51119e-07
0.000271821
6.42861e-07
0.000271613
6.34451e-07
0.000271408
6.26403e-07
0.000271205
6.18372e-07
0.000271005
6.10634e-07
0.000270808
6.02813e-07
0.000270613
5.95361e-07
0.000270421
5.87746e-07
0.000270231
5.80571e-07
0.000270043
5.73208e-07
0.000269858
5.66257e-07
0.000269675
5.59114e-07
0.000269495
5.52396e-07
0.000269316
5.45584e-07
0.00026914
5.38937e-07
0.000268966
5.32392e-07
0.000268794
5.25931e-07
0.000268625
5.19715e-07
0.000268457
5.1341e-07
0.000268291
5.07313e-07
0.000268127
5.01128e-07
0.000267966
4.9529e-07
0.000267806
4.89381e-07
0.000267648
4.83762e-07
0.000267492
4.77982e-07
0.000267338
4.72639e-07
0.000267185
4.67127e-07
0.000267034
4.61965e-07
0.000266885
4.56742e-07
0.000266738
4.52028e-07
0.000266592
4.47257e-07
0.000266447
4.43075e-07
0.000266304
4.38664e-07
0.000266163
4.34774e-07
0.000266022
4.30373e-07
0.000265883
4.26929e-07
0.000265746
4.22951e-07
0.000265609
4.19982e-07
0.000265473
4.16277e-07
0.000265339
4.13731e-07
0.000265205
4.10262e-07
0.000265072
4.07687e-07
0.000264941
4.04522e-07
0.00026481
4.02003e-07
0.00026468
3.99884e-07
0.000264551
3.96795e-07
0.000264422
3.9669e-07
0.000264294
3.91259e-07
0.000264167
3.95897e-07
0.000264039
3.85118e-07
0.000263912
4.01183e-07
0.000263785
3.78411e-07
0.000263656
4.13252e-07
0.00026353
3.74561e-07
0.000263397
4.28643e-07
0.000263266
3.87703e-07
0.00026313
4.42797e-07
0.000262992
3.86914e-07
7.55149e-07
0.000662835
0.000195873
0.000676972
0.000226174
0.000678735
0.000177503
0.000676807
0.000146857
0.000670868
0.000127426
0.000661395
0.000111749
0.000649243
9.88842e-05
0.000634969
8.87822e-05
0.00061928
7.98591e-05
0.000602799
7.20918e-05
0.000586245
6.47488e-05
0.000570136
5.80236e-05
0.000554849
5.20253e-05
0.000540604
4.64937e-05
0.000527446
4.16914e-05
0.000515358
3.7554e-05
0.00050431
3.38845e-05
0.000494209
3.07128e-05
0.000484951
2.79855e-05
0.000476472
2.55264e-05
0.000468685
2.34167e-05
0.000461512
2.15548e-05
0.000454884
1.99284e-05
0.00044875
1.84475e-05
0.00044306
1.71336e-05
0.000437761
1.60052e-05
0.00043282
1.4955e-05
0.000428198
1.40382e-05
0.000423871
1.31725e-05
0.000419806
1.2416e-05
0.000415978
1.17234e-05
0.000412369
1.10976e-05
0.000408961
1.05081e-05
0.000405736
9.97428e-06
0.000402679
9.48908e-06
0.000399775
9.04496e-06
0.000397012
8.62246e-06
0.000394381
8.24414e-06
0.000391872
7.88223e-06
0.000389477
7.54668e-06
0.000387185
7.24767e-06
0.000384992
6.95001e-06
0.00038289
6.68645e-06
0.000380873
6.42591e-06
0.000378936
6.19181e-06
0.000377074
5.96858e-06
0.000375282
5.7633e-06
0.000373557
5.55961e-06
0.000371893
5.37838e-06
0.000370289
5.19509e-06
0.000368739
5.02981e-06
0.000367242
4.87156e-06
0.000365795
4.72426e-06
0.000364394
4.57813e-06
0.000363038
4.44343e-06
0.000361724
4.31276e-06
0.000360451
4.18819e-06
0.000359216
4.07315e-06
0.000358017
3.95924e-06
0.000356853
3.85373e-06
0.000355722
3.74942e-06
0.000354622
3.65232e-06
0.000353553
3.55762e-06
0.000352513
3.46617e-06
0.0003515
3.38217e-06
0.000350514
3.29752e-06
0.000349553
3.21923e-06
0.000348617
3.14021e-06
0.000347704
3.06771e-06
0.000346814
2.99526e-06
0.000345946
2.92694e-06
0.000345098
2.86074e-06
0.00034427
2.79861e-06
0.000343462
2.73613e-06
0.000342672
2.67732e-06
0.0003419
2.61942e-06
0.000341145
2.56391e-06
0.000340407
2.51005e-06
0.000339686
2.45716e-06
0.000338979
2.40804e-06
0.000338288
2.35902e-06
0.000337612
2.31277e-06
0.000336949
2.26615e-06
0.0003363
2.22263e-06
0.000335665
2.17885e-06
0.000335042
2.13734e-06
0.000334431
2.09676e-06
0.000333833
2.05691e-06
0.000333246
2.0195e-06
0.000332671
1.982e-06
0.000332106
1.9465e-06
0.000331552
1.91088e-06
0.000331009
1.87718e-06
0.000330476
1.84359e-06
0.000329952
1.81122e-06
0.000329438
1.77978e-06
0.000328933
1.7486e-06
0.000328438
1.7193e-06
0.000327951
1.68991e-06
0.000327472
1.66214e-06
0.000327002
1.63388e-06
0.00032654
1.60739e-06
0.000326086
1.58035e-06
0.000325639
1.55515e-06
0.0003252
1.52952e-06
0.000324769
1.5052e-06
0.000324344
1.48121e-06
0.000323927
1.45749e-06
0.000323516
1.43521e-06
0.000323112
1.41244e-06
0.000322714
1.39107e-06
0.000322323
1.36917e-06
0.000321938
1.34881e-06
0.000321558
1.32775e-06
0.000321185
1.30835e-06
0.000320818
1.28816e-06
0.000320456
1.2694e-06
0.0003201
1.25029e-06
0.000319749
1.23212e-06
0.000319404
1.21404e-06
0.000319063
1.19674e-06
0.000318728
1.17919e-06
0.000318398
1.16258e-06
0.000318072
1.14564e-06
0.000317751
1.12974e-06
0.000317435
1.11345e-06
0.000317124
1.0981e-06
0.000316816
1.08255e-06
0.000316514
1.0676e-06
0.000316215
1.05286e-06
0.000315921
1.03826e-06
0.000315631
1.02432e-06
0.000315345
1.01021e-06
0.000315063
9.96765e-07
0.000314785
9.8308e-07
0.00031451
9.70181e-07
0.00031424
9.56916e-07
0.000313973
9.44516e-07
0.00031371
9.31698e-07
0.00031345
9.19719e-07
0.000313194
9.07397e-07
0.000312941
8.95745e-07
0.000312691
8.83967e-07
0.000312445
8.72633e-07
0.000312202
8.61371e-07
0.000311962
8.50482e-07
0.000311725
8.39531e-07
0.000311492
8.29042e-07
0.000311261
8.184e-07
0.000311033
8.08301e-07
0.000310809
7.98009e-07
0.000310587
7.88235e-07
0.000310367
7.78268e-07
0.000310151
7.68819e-07
0.000309937
7.59291e-07
0.000309726
7.49989e-07
0.000309518
7.40836e-07
0.000309312
7.31795e-07
0.000309109
7.23072e-07
0.000308908
7.14276e-07
0.000308709
7.05751e-07
0.000308513
6.97145e-07
0.00030832
6.88966e-07
0.000308128
6.8071e-07
0.000307939
6.72842e-07
0.000307752
6.64798e-07
0.000307568
6.57308e-07
0.000307385
6.4962e-07
0.000307205
6.42423e-07
0.000307026
6.35127e-07
0.00030685
6.28518e-07
0.000306675
6.21781e-07
0.000306503
6.15873e-07
0.000306332
6.09594e-07
0.000306162
6.04176e-07
0.000305995
5.97963e-07
0.000305828
5.93202e-07
0.000305664
5.87451e-07
0.0003055
5.8342e-07
0.000305339
5.7794e-07
0.000305178
5.74624e-07
0.000305019
5.69315e-07
0.00030486
5.66281e-07
0.000304704
5.61162e-07
0.000304547
5.58545e-07
0.000304393
5.5437e-07
0.000304238
5.51544e-07
0.000304085
5.49381e-07
0.000303932
5.4443e-07
0.00030378
5.47372e-07
0.000303629
5.3693e-07
0.000303477
5.52355e-07
0.000303327
5.29342e-07
0.000303174
5.65582e-07
0.000303023
5.25416e-07
0.000302867
5.84955e-07
0.000302712
5.42421e-07
0.000302553
6.02401e-07
0.00030239
5.49977e-07
9.42212e-07
0.000692313
0.000176308
0.000707615
0.000210872
0.000712069
0.000173049
0.000712613
0.000146312
0.000711315
0.000128724
0.000708068
0.000114996
0.00070273
0.000104222
0.000695579
9.59338e-05
0.000686729
8.87092e-05
0.000676225
8.25951e-05
0.000664366
7.66077e-05
0.000651498
7.08915e-05
0.000638042
6.54811e-05
0.000624464
6.00726e-05
0.000611106
5.5049e-05
0.000598215
5.04449e-05
0.000585977
4.61223e-05
0.000574465
4.22245e-05
0.00056369
3.87606e-05
0.000553656
3.55611e-05
0.000544327
3.27454e-05
0.000535653
3.0229e-05
0.000527582
2.79993e-05
0.00052007
2.59597e-05
0.000513073
2.41299e-05
0.000506539
2.25392e-05
0.000500431
2.10636e-05
0.000494707
1.97624e-05
0.00048934
1.8539e-05
0.000484295
1.74615e-05
0.000479544
1.64741e-05
0.000475062
1.55795e-05
0.000470829
1.47408e-05
0.000466825
1.3979e-05
0.00046303
1.3284e-05
0.000459425
1.26493e-05