/*--------------------------------*- C++ -*----------------------------------*\
  =========                 |
  \\      /  F ield         | OpenFOAM: The Open Source CFD Toolbox
   \\    /   O peration     | Website:  https://openfoam.org
    \\  /    A nd           | Version:  12
     \\/     M anipulation  |
\*---------------------------------------------------------------------------*/
FoamFile
{
    format      ascii;
    class       surfaceScalarField;
    location    "1000";
    object      phi;
}
// * * * * * * * * * * * * * * * * * * * * * * * * * * * * * * * * * * * * * //

dimensions      [0 3 -1 0 0 0 0];

internalField   nonuniform List<scalar> 
39700
(
0.000289049
0.000218413
0.000158807
0.000130241
0.000114183
4.46241e-05
9.67878e-05
1.73955e-05
8.76321e-05
9.15551e-06
8.18547e-05
5.77743e-06
7.80677e-05
3.78698e-06
7.53664e-05
2.70149e-06
7.33134e-05
2.05295e-06
7.16125e-05
1.70085e-06
7.01875e-05
1.42504e-06
6.89809e-05
1.20653e-06
6.79015e-05
1.07946e-06
6.69894e-05
9.12098e-07
6.61931e-05
7.96248e-07
6.54759e-05
7.17172e-07
6.48194e-05
6.56529e-07
6.4212e-05
6.07418e-07
6.36465e-05
5.65466e-07
6.31267e-05
5.19765e-07
6.26362e-05
4.90583e-07
6.21737e-05
4.62429e-07
6.17365e-05
4.37233e-07
6.13254e-05
4.11143e-07
6.0938e-05
3.87416e-07
6.05648e-05
3.73167e-07
6.02105e-05
3.5434e-07
5.98687e-05
3.41765e-07
5.9543e-05
3.25693e-07
5.92292e-05
3.1384e-07
5.89291e-05
3.0012e-07
5.86379e-05
2.91257e-07
5.83582e-05
2.79705e-07
5.80883e-05
2.69915e-07
5.78265e-05
2.61788e-07
5.75734e-05
2.53127e-07
5.73301e-05
2.43289e-07
5.70931e-05
2.37008e-07
5.68637e-05
2.29393e-07
5.66414e-05
2.22281e-07
5.64244e-05
2.17057e-07
5.62147e-05
2.09722e-07
5.60096e-05
2.05095e-07
5.58116e-05
1.97992e-07
5.5618e-05
1.93606e-07
5.54298e-05
1.8821e-07
5.52455e-05
1.84237e-07
5.5067e-05
1.78531e-07
5.48918e-05
1.75235e-07
5.47219e-05
1.69867e-07
5.45556e-05
1.66288e-07
5.43934e-05
1.6216e-07
5.42346e-05
1.58878e-07
5.40798e-05
1.54734e-07
5.39284e-05
1.51392e-07
5.37806e-05
1.47763e-07
5.36361e-05
1.44522e-07
5.34944e-05
1.41698e-07
5.33561e-05
1.38273e-07
5.32205e-05
1.35577e-07
5.3088e-05
1.32498e-07
5.29581e-05
1.29936e-07
5.28308e-05
1.27194e-07
5.27063e-05
1.24495e-07
5.25839e-05
1.22419e-07
5.24643e-05
1.1964e-07
5.23467e-05
1.17568e-07
5.22318e-05
1.14909e-07
5.21188e-05
1.12996e-07
5.20081e-05
1.10606e-07
5.18995e-05
1.08666e-07
5.17929e-05
1.06593e-07
5.16881e-05
1.04797e-07
5.15854e-05
1.02713e-07
5.14844e-05
1.00944e-07
5.13854e-05
9.90503e-08
5.12881e-05
9.73044e-08
5.11925e-05
9.55532e-08
5.10987e-05
9.37843e-08
5.10063e-05
9.23577e-08
5.09157e-05
9.0618e-08
5.08265e-05
8.91996e-08
5.0739e-05
8.75439e-08
5.06528e-05
8.6203e-08
5.05681e-05
8.46439e-08
5.04848e-05
8.32959e-08
5.04029e-05
8.19048e-08
5.03224e-05
8.0522e-08
5.0243e-05
7.93296e-08
5.01651e-05
7.79669e-08
5.00883e-05
7.68078e-08
5.00128e-05
7.55099e-08
4.99384e-05
7.43882e-08
4.98652e-05
7.31784e-08
4.97932e-05
7.20458e-08
4.97222e-05
7.09503e-08
4.96524e-05
6.97976e-08
4.95836e-05
6.88512e-08
4.95158e-05
6.77174e-08
4.94491e-05
6.67978e-08
4.93834e-05
6.56967e-08
4.93186e-05
6.48109e-08
4.92548e-05
6.37536e-08
4.91919e-05
6.29066e-08
4.913e-05
6.19163e-08
4.9069e-05
6.10482e-08
4.90088e-05
6.01734e-08
4.89495e-05
5.92592e-08
4.8891e-05
5.85108e-08
4.88334e-05
5.75793e-08
4.87766e-05
5.68709e-08
4.87206e-05
5.59513e-08
4.86653e-05
5.52823e-08
4.86109e-05
5.43995e-08
4.85572e-05
5.37658e-08
4.85043e-05
5.2895e-08
4.8452e-05
5.22706e-08
4.84005e-05
5.14872e-08
4.83497e-05
5.08381e-08
4.82995e-05
5.0101e-08
4.825e-05
4.95012e-08
4.82013e-05
4.87905e-08
4.81531e-05
4.81726e-08
4.81056e-05
4.74711e-08
4.80587e-05
4.69292e-08
4.80124e-05
4.62454e-08
4.79667e-05
4.56621e-08
4.79217e-05
4.5057e-08
4.78772e-05
4.45075e-08
4.78333e-05
4.39092e-08
4.779e-05
4.33089e-08
4.77472e-05
4.28519e-08
4.77049e-05
4.22423e-08
4.76632e-05
4.171e-08
4.7622e-05
4.11441e-08
4.75813e-05
4.07584e-08
4.75412e-05
4.01321e-08
4.75015e-05
3.96545e-08
4.74623e-05
3.91469e-08
4.74237e-05
3.87775e-08
4.73855e-05
3.81596e-08
4.73477e-05
3.77186e-08
4.73104e-05
3.73001e-08
4.72737e-05
3.68636e-08
4.72373e-05
3.62757e-08
4.72014e-05
3.59286e-08
4.71658e-05
3.55993e-08
4.71308e-05
3.5119e-08
4.70962e-05
3.4504e-08
4.70619e-05
3.4238e-08
4.70281e-05
3.39282e-08
4.69947e-05
3.342e-08
4.69617e-05
3.28599e-08
4.6929e-05
3.26842e-08
4.68967e-05
3.2376e-08
4.68649e-05
3.18081e-08
4.68335e-05
3.13714e-08
4.68023e-05
3.12271e-08
4.67714e-05
3.08742e-08
4.6741e-05
3.0254e-08
4.6711e-05
2.99794e-08
4.66813e-05
2.9897e-08
4.66518e-05
2.94983e-08
4.66227e-05
2.884e-08
4.65941e-05
2.86303e-08
4.65656e-05
2.85634e-08
4.65375e-05
2.81453e-08
4.65097e-05
2.75458e-08
4.64823e-05
2.73841e-08
4.64551e-05
2.73207e-08
4.64283e-05
2.68717e-08
4.64017e-05
2.63783e-08
4.63754e-05
2.62247e-08
4.63494e-05
2.61947e-08
4.63237e-05
2.56618e-08
4.62981e-05
2.53391e-08
4.6273e-05
2.5209e-08
4.62479e-05
2.52848e-08
4.62234e-05
2.45247e-08
4.61986e-05
2.44244e-08
4.61746e-05
2.40659e-08
4.61502e-05
2.45929e-08
4.61267e-05
2.34728e-08
4.61024e-05
2.40646e-08
4.60796e-05
2.29175e-08
4.60552e-05
2.45094e-08
4.6033e-05
2.22881e-08
4.60083e-05
2.45933e-08
4.59868e-05
2.14249e-08
4.59612e-05
2.57222e-08
4.59409e-05
2.03662e-08
4.59136e-05
2.72878e-08
4.58949e-05
1.86441e-08
4.58652e-05
2.97661e-08
4.5848e-05
1.7277e-08
4.58158e-05
3.21898e-08
4.58001e-05
1.56528e-08
4.57639e-05
3.62246e-08
4.57593e-05
4.62121e-09
1.14612e-07
0.000488265
0.000262025
0.000397814
0.000220693
0.000326642
0.000115796
0.000282376
6.16616e-05
0.000254841
3.66906e-05
0.000236498
2.41203e-05
0.000223531
1.67545e-05
0.000213787
1.24453e-05
0.000206136
9.7035e-06
0.00019986
7.97741e-06
0.000194624
6.66038e-06
0.0001902
5.63075e-06
0.000186358
4.92157e-06
0.000183055
4.21494e-06
0.000180167
3.68424e-06
0.000177592
3.2928e-06
0.000175269
2.97857e-06
0.000173162
2.71454e-06
0.000171234
2.49406e-06
0.00016947
2.28305e-06
0.000167837
2.12449e-06
0.000166321
1.97842e-06
0.000164906
1.85222e-06
0.000163588
1.7287e-06
0.000162356
1.61914e-06
0.000161191
1.53864e-06
0.000160092
1.45331e-06
0.000159049
1.38505e-06
0.000158061
1.3131e-06
0.000157122
1.25322e-06
0.000156228
1.19424e-06
0.000155372
1.14747e-06
0.000154555
1.09677e-06
0.000153773
1.05191e-06
0.000153021
1.01316e-06
0.0001523
9.74607e-07
0.000151608
9.34764e-07
0.000150941
9.04367e-07
0.000150298
8.71794e-07
0.000149679
8.41461e-07
0.00014908
8.16638e-07
0.000148501
7.88009e-07
0.000147941
7.65752e-07
0.0001474
7.39032e-07
0.000146875
7.18517e-07
0.000146366
6.97281e-07
0.000145871
6.79029e-07
0.000145392
6.5783e-07
0.000144925
6.42077e-07
0.000144472
6.22439e-07
0.000144032
6.068e-07
0.000143603
5.90843e-07
0.000143185
5.76915e-07
0.000142778
5.61265e-07
0.000142382
5.47733e-07
0.000141996
5.33873e-07
0.000141619
5.21067e-07
0.000141252
5.09539e-07
0.000140893
4.96915e-07
0.000140542
4.86056e-07
0.0001402
4.74558e-07
0.000139866
4.6443e-07
0.000139539
4.54019e-07
0.00013922
4.43938e-07
0.000138907
4.35373e-07
0.000138601
4.25487e-07
0.000138301
4.17165e-07
0.000138008
4.07768e-07
0.000137721
4.0005e-07
0.00013744
3.9151e-07
0.000137165
3.83965e-07
0.000136895
3.76355e-07
0.000136631
3.69457e-07
0.000136371
3.61992e-07
0.000136117
3.55285e-07
0.000135868
3.48413e-07
0.000135623
3.41939e-07
0.000135383
3.3552e-07
0.000135148
3.2916e-07
0.000134916
3.23617e-07
0.000134689
3.17535e-07
0.000134466
3.12161e-07
0.000134248
3.06348e-07
0.000134033
3.01272e-07
0.000133821
2.95784e-07
0.000133614
2.90806e-07
0.00013341
2.85803e-07
0.00013321
2.80861e-07
0.000133013
2.76408e-07
0.000132819
2.71645e-07
0.000132628
2.6735e-07
0.000132441
2.62802e-07
0.000132257
2.58686e-07
0.000132076
2.5441e-07
0.000131897
2.50347e-07
0.000131722
2.46395e-07
0.000131549
2.42377e-07
0.000131379
2.38826e-07
0.000131212
2.3495e-07
0.000131047
2.31532e-07
0.000130885
2.27772e-07
0.000130726
2.24492e-07
0.000130568
2.20877e-07
0.000130414
2.17748e-07
0.000130261
2.1433e-07
0.000130111
2.11224e-07
0.000129963
2.08112e-07
0.000129817
2.04958e-07
0.000129674
2.02176e-07
0.000129532
1.99058e-07
0.000129393
1.96396e-07
0.000129255
1.93347e-07
0.00012912
1.90816e-07
0.000128986
1.87885e-07
0.000128855
1.85479e-07
0.000128725
1.8262e-07
0.000128597
1.80271e-07
0.000128471
1.77633e-07
0.000128346
1.7527e-07
0.000128224
1.72791e-07
0.000128102
1.70592e-07
0.000127983
1.68171e-07
0.000127865
1.65957e-07
0.000127749
1.63613e-07
0.000127634
1.61604e-07
0.000127521
1.59304e-07
0.00012741
1.57237e-07
0.0001273
1.5515e-07
0.000127191
1.53196e-07
0.000127084
1.51142e-07
0.000126978
1.49106e-07
0.000126874
1.47373e-07
0.00012677
1.45358e-07
0.000126669
1.43511e-07
0.000126568
1.41617e-07
0.000126469
1.40052e-07
0.000126371
1.38049e-07
0.000126274
1.3638e-07
0.000126179
1.34661e-07
0.000126085
1.33156e-07
0.000125991
1.31199e-07
0.0001259
1.29662e-07
0.000125809
1.28184e-07
0.000125719
1.26571e-07
0.00012563
1.2473e-07
0.000125543
1.23449e-07
0.000125457
1.22199e-07
0.000125371
1.20521e-07
0.000125287
1.1864e-07
0.000125203
1.17564e-07
0.000125121
1.16389e-07
0.00012504
1.14722e-07
0.000124959
1.13006e-07
0.00012488
1.12122e-07
0.000124802
1.10974e-07
0.000124724
1.09262e-07
0.000124647
1.07851e-07
0.000124572
1.0702e-07
0.000124497
1.05788e-07
0.000124423
1.04082e-07
0.000124349
1.03061e-07
0.000124277
1.02338e-07
0.000124206
1.01009e-07
0.000124135
9.92986e-08
0.000124065
9.84588e-08
0.000123996
9.77686e-08
0.000123928
9.64146e-08
0.00012386
9.4884e-08
0.000123793
9.41833e-08
0.000123727
9.3503e-08
0.000123662
9.21189e-08
0.000123597
9.08131e-08
0.000123533
9.02189e-08
0.00012347
8.95793e-08
0.000123407
8.81097e-08
0.000123345
8.71785e-08
0.000123284
8.67438e-08
0.000123223
8.61842e-08
0.000123163
8.43836e-08
0.000123104
8.38127e-08
0.000123045
8.31825e-08
0.000122986
8.34044e-08
0.000122928
8.12423e-08
0.00012287
8.17561e-08
0.000122813
8.0027e-08
0.000122756
8.19955e-08
0.0001227
7.83388e-08
0.000122643
8.16307e-08
0.000122588
7.67679e-08
0.00012253
8.35198e-08
0.000122476
7.45711e-08
0.000122416
8.68063e-08
0.000122364
7.11754e-08
0.000122301
9.23455e-08
0.00012225
6.89952e-08
0.000122184
9.75766e-08
0.000122131
6.9217e-08
0.000122062
1.05253e-07
0.000122013
5.32338e-08
2.67702e-07
0.000561758
0.000257735
0.000533663
0.000248788
0.000488961
0.000160498
0.000442261
0.000108361
0.000405037
7.39146e-05
0.00037623
5.29275e-05
0.00035383
3.91548e-05
0.000336082
3.01928e-05
0.000321767
2.4019e-05
0.000309972
1.97724e-05
0.000300111
1.65213e-05
0.000291762
1.39792e-05
0.000284584
1.21e-05
0.00027836
1.04383e-05
0.000272906
9.13855e-06
0.000268061
8.13774e-06
0.000263728
7.31225e-06
0.000259826
6.61586e-06
0.000256284
6.03671e-06
0.000253059
5.50774e-06
0.000250098
5.08493e-06
0.000247373
4.70413e-06
0.000244848
4.377e-06
0.000242509
4.06753e-06
0.000240334
3.79471e-06
0.000238293
3.57875e-06
0.000236381
3.36563e-06
0.00023458
3.18649e-06
0.000232884
3.00846e-06
0.000231281
2.85632e-06
0.000229762
2.71318e-06
0.000228319
2.591e-06
0.000226948
2.46781e-06
0.000225642
2.35746e-06
0.000224395
2.25989e-06
0.000223204
2.1665e-06
0.000222065
2.07378e-06
0.000220972
1.99733e-06
0.000219924
1.91969e-06
0.000218918
1.84747e-06
0.000217948
1.78598e-06
0.000217016
1.72021e-06
0.000216117
1.66525e-06
0.00021525
1.60529e-06
0.000214413
1.55548e-06
0.000213604
1.50638e-06
0.000212821
1.46231e-06
0.000212064
1.41501e-06
0.000211329
1.37653e-06
0.000210619
1.33324e-06
0.000209929
1.29643e-06
0.00020926
1.26029e-06
0.000208609
1.22765e-06
0.000207977
1.19294e-06
0.000207363
1.16204e-06
0.000206766
1.13116e-06
0.000206184
1.10218e-06
0.000205618
1.07578e-06
0.000205067
1.04816e-06
0.000204529
1.02353e-06
0.000204006
9.98269e-07
0.000203495
9.75445e-07
0.000202996
9.52508e-07
0.00020251
9.30351e-07
0.000202034
9.1079e-07
0.00020157
8.8961e-07
0.000201116
8.70925e-07
0.000200673
8.50903e-07
0.00020024
8.33545e-07
0.000199816
8.15272e-07
0.000199401
7.98579e-07
0.000198996
7.82094e-07
0.000198598
7.66899e-07
0.000198209
7.50976e-07
0.000197828
7.36331e-07
0.000197455
7.21608e-07
0.000197089
7.07615e-07
0.000196731
6.93852e-07
0.00019638
6.80285e-07
0.000196035
6.68094e-07
0.000195698
6.55307e-07
0.000195366
6.43635e-07
0.000195041
6.31415e-07
0.000194722
6.204e-07
0.000194409
6.08875e-07
0.000194101
5.98198e-07
0.0001938
5.87602e-07
0.000193503
5.77157e-07
0.000193212
5.67569e-07
0.000192926
5.57611e-07
0.000192645
5.48418e-07
0.000192369
5.38918e-07
0.000192098
5.3014e-07
0.000191831
5.21184e-07
0.000191569
5.12617e-07
0.000191311
5.04283e-07
0.000191057
4.95913e-07
0.000190808
4.88294e-07
0.000190562
4.80301e-07
0.000190321
4.73013e-07
0.000190083
4.6528e-07
0.00018985
4.583e-07
0.00018962
4.50867e-07
0.000189393
4.44215e-07
0.00018917
4.37176e-07
0.000188951
4.30656e-07
0.000188735
4.24161e-07
0.000188522
4.17661e-07
0.000188313
4.11752e-07
0.000188106
4.05408e-07
0.000187903
3.99737e-07
0.000187703
3.9358e-07
0.000187505
3.88177e-07
0.000187311
3.82249e-07
0.000187119
3.7711e-07
0.00018693
3.71368e-07
0.000186744
3.66362e-07
0.000186561
3.6101e-07
0.00018638
3.56068e-07
0.000186202
3.51009e-07
0.000186026
3.46355e-07
0.000185853
3.4144e-07
0.000185682
3.36866e-07
0.000185514
3.32084e-07
0.000185347
3.27815e-07
0.000185183
3.23192e-07
0.000185022
3.18941e-07
0.000184862
3.14615e-07
0.000184705
3.10534e-07
0.00018455
3.06376e-07
0.000184397
3.02247e-07
0.000184245
2.98533e-07
0.000184096
2.94505e-07
0.000183949
2.90726e-07
0.000183804
2.86854e-07
0.00018366
2.83469e-07
0.000183519
2.7957e-07
0.000183379
2.76103e-07
0.000183241
2.72525e-07
0.000183105
2.69347e-07
0.000182971
2.65627e-07
0.000182838
2.62386e-07
0.000182707
2.59205e-07
0.000182577
2.56009e-07
0.00018245
2.52545e-07
0.000182323
2.49652e-07
0.000182199
2.46826e-07
0.000182076
2.43697e-07
0.000181954
2.40276e-07
0.000181834
2.37698e-07
0.000181715
2.35036e-07
0.000181598
2.32002e-07
0.000181482
2.28818e-07
0.000181368
2.26541e-07
0.000181255
2.24031e-07
0.000181143
2.20991e-07
0.000181033
2.1822e-07
0.000180924
2.16097e-07
0.000180816
2.13638e-07
0.000180709
2.10625e-07
0.000180604
2.08328e-07
0.0001805
2.0644e-07
0.000180397
2.03985e-07
0.000180295
2.00998e-07
0.000180195
1.98957e-07
0.000180095
1.97191e-07
0.000179997
1.94798e-07
0.0001799
1.92044e-07
0.000179804
1.90221e-07
0.000179709
1.88536e-07
0.000179615
1.86192e-07
0.000179522
1.83715e-07
0.00017943
1.82097e-07
0.000179339
1.80527e-07
0.000179249
1.78235e-07
0.00017916
1.76146e-07
0.000179072
1.74837e-07
0.000178984
1.73394e-07
0.000178898
1.70945e-07
0.000178812
1.69249e-07
0.000178728
1.67964e-07
0.000178644
1.67375e-07
0.00017856
1.64804e-07
0.000178478
1.64321e-07
0.000178395
1.62148e-07
0.000178314
1.63465e-07
0.000178233
1.59544e-07
0.000178152
1.62386e-07
0.000178072
1.56974e-07
0.000177991
1.64273e-07
0.000177912
1.53884e-07
0.00017783
1.68864e-07
0.000177751
1.49293e-07
0.000177666
1.77345e-07
0.000177589
1.46684e-07
0.000177501
1.85527e-07
0.000177419
1.51076e-07
0.000177329
1.95599e-07
0.000177245
1.36975e-07
4.20919e-07
0.000603275
0.000238749
0.000602014
0.00025005
0.000586362
0.00017615
0.000559304
0.000135419
0.000528242
0.000104977
0.000498893
8.22769e-05
0.000472622
6.54251e-05
0.00044971
5.31053e-05
0.00043006
4.36691e-05
0.000413272
3.656e-05
0.0003989
3.0893e-05
0.000386516
2.63635e-05
0.000375768
2.28478e-05
0.000366357
1.98496e-05
0.000358056
1.74395e-05
0.000350678
1.55162e-05
0.000344088
1.39016e-05
0.000338164
1.25401e-05
0.0003328
1.14006e-05
0.000327927
1.03813e-05
0.000323471
9.54022e-06
0.000319383
8.79208e-06
0.000315612
8.14867e-06
0.000312127
7.55253e-06
0.000308893
7.02859e-06
0.000305875
6.59699e-06
0.000303056
6.18432e-06
0.000300412
5.83093e-06
0.000297931
5.48893e-06
0.000295594
5.19355e-06
0.000293386
4.92078e-06
0.000291297
4.68019e-06
0.000289319
4.44613e-06
0.000287441
4.23538e-06
0.000285654
4.04638e-06
0.000283951
3.86973e-06
0.000282327
3.69802e-06
0.000280774
3.5502e-06
0.000279289
3.40462e-06
0.000277867
3.26939e-06
0.000276501
3.15181e-06
0.000275191
3.03066e-06
0.00027393
2.92607e-06
0.000272718
2.8175e-06
0.00027155
2.7237e-06
0.000270423
2.63291e-06
0.000269335
2.55013e-06
0.000268286
2.46477e-06
0.00026727
2.39214e-06
0.000266289
2.31463e-06
0.000265338
2.24666e-06
0.000264418
2.18095e-06
0.000263525
2.12061e-06
0.000262659
2.05849e-06
0.000261819
2.00233e-06
0.000261003
1.94693e-06
0.000260211
1.89452e-06
0.00025944
1.84646e-06
0.000258691
1.79746e-06
0.000257961
1.75296e-06
0.000257252
1.70812e-06
0.00025656
1.66701e-06
0.000255886
1.62627e-06
0.00025523
1.58693e-06
0.000254589
1.5515e-06
0.000253964
1.51446e-06
0.000253354
1.48101e-06
0.000252759
1.44616e-06
0.000252177
1.41508e-06
0.000251609
1.38321e-06
0.000251054
1.35361e-06
0.000250512
1.32466e-06
0.000249981
1.29774e-06
0.000249462
1.27008e-06
0.000248954
1.24433e-06
0.000248457
1.2187e-06
0.00024797
1.19423e-06
0.000247493
1.17031e-06
0.000247027
1.14678e-06
0.00024657
1.12528e-06
0.000246122
1.10328e-06
0.000245683
1.08286e-06
0.000245252
1.06186e-06
0.00024483
1.04261e-06
0.000244416
1.02284e-06
0.00024401
1.00431e-06
0.000243611
9.86061e-07
0.00024322
9.68095e-07
0.000242837
9.51425e-07
0.00024246
9.34404e-07
0.00024209
9.18489e-07
0.000241726
9.02273e-07
0.000241369
8.87117e-07
0.000241019
8.71819e-07
0.000240674
8.5713e-07
0.000240336
8.4285e-07
0.000240003
8.28595e-07
0.000239676
8.15413e-07
0.000239354
8.01885e-07
0.000239038
7.89334e-07
0.000238727
7.76274e-07
0.000238421
7.64266e-07
0.00023812
7.51734e-07
0.000237824
7.40304e-07
0.000237533
7.28425e-07
0.000237246
7.173e-07
0.000236964
7.06267e-07
0.000236686
6.95289e-07
0.000236413
6.85145e-07
0.000236144
6.74519e-07
0.000235879
6.64788e-07
0.000235618
6.54509e-07
0.000235361
6.45231e-07
0.000235108
6.35349e-07
0.000234858
6.26519e-07
0.000234613
6.16976e-07
0.000234371
6.08403e-07
0.000234132
5.99464e-07
0.000233897
5.91063e-07
0.000233666
5.82595e-07
0.000233437
5.74678e-07
0.000233212
5.6646e-07
0.00023299
5.58718e-07
0.000232772
5.50751e-07
0.000232556
5.4349e-07
0.000232344
5.35795e-07
0.000232134
5.28613e-07
0.000231927
5.21374e-07
0.000231723
5.14497e-07
0.000231522
5.07536e-07
0.000231324
5.00643e-07
0.000231128
4.94325e-07
0.000230935
4.8765e-07
0.000230744
4.81291e-07
0.000230556
4.74862e-07
0.000230371
4.69074e-07
0.000230187
4.62665e-07
0.000230007
4.56816e-07
0.000229828
4.50878e-07
0.000229652
4.45451e-07
0.000229479
4.39357e-07
0.000229307
4.33898e-07
0.000229138
4.28583e-07
0.000228971
4.23219e-07
0.000228806
4.17531e-07
0.000228643
4.1263e-07
0.000228482
4.07881e-07
0.000228323
4.02683e-07
0.000228166
3.97101e-07
0.000228011
3.9269e-07
0.000227858
3.88233e-07
0.000227706
3.83236e-07
0.000227557
3.78036e-07
0.000227409
3.74088e-07
0.000227264
3.69902e-07
0.00022712
3.6497e-07
0.000226977
3.60382e-07
0.000226837
3.567e-07
0.000226698
3.5263e-07
0.00022656
3.4781e-07
0.000226425
3.43915e-07
0.000226291
3.40608e-07
0.000226158
3.36592e-07
0.000226027
3.31868e-07
0.000225898
3.28379e-07
0.00022577
3.25273e-07
0.000225643
3.2138e-07
0.000225518
3.17013e-07
0.000225394
3.139e-07
0.000225272
3.10932e-07
0.000225151
3.07172e-07
0.000225031
3.03185e-07
0.000224913
3.00459e-07
0.000224796
2.97615e-07
0.00022468
2.94036e-07
0.000224565
2.90544e-07
0.000224452
2.88437e-07
0.00022434
2.85673e-07
0.000224229
2.82107e-07
0.000224119
2.78955e-07
0.000224009
2.77214e-07
0.000223902
2.75308e-07
0.000223794
2.72092e-07
0.000223688
2.70128e-07
0.000223583
2.67932e-07
0.000223478
2.67927e-07
0.000223374
2.63909e-07
0.000223271
2.65455e-07
0.000223168
2.60235e-07
0.000223065
2.6708e-07
0.000222963
2.56133e-07
0.000222859
2.72279e-07
0.000222758
2.50549e-07
0.000222652
2.83345e-07
0.000222551
2.47776e-07
0.000222442
2.94996e-07
0.000222336
2.56768e-07
0.000222224
3.07364e-07
0.000222113
2.47907e-07
5.80241e-07
0.000634307
0.000216843
0.00064405
0.000240307
0.000640936
0.000179264
0.000631423
0.000144932
0.000614913
0.000121487
0.000594927
0.000102263
0.000573634
8.67174e-05
0.00055223
7.45099e-05
0.000531717
6.41823e-05
0.000512661
5.56152e-05
0.000495363
4.8192e-05
0.000479815
4.1911e-05
0.000465926
3.67366e-05
0.000453527
3.22485e-05
0.000442432
2.85348e-05
0.00043248
2.54683e-05
0.000423543
2.28387e-05
0.000415473
2.06101e-05
0.000408147
1.87263e-05
0.000401482
1.70461e-05
0.000395391
1.56321e-05
0.000389799
1.43836e-05
0.000384645
1.33024e-05
0.000379884
1.23134e-05
0.00037547
1.14429e-05
0.00037136
1.07072e-05
0.000367529
1.00157e-05
0.000363942
9.41737e-06
0.000360584
8.847e-06
0.000357426
8.35121e-06
0.00035445
7.89687e-06
0.000351641
7.48979e-06
0.000348985
7.10161e-06
0.00034647
6.75104e-06
0.000344082
6.43382e-06
0.00034181
6.14144e-06
0.000339647
5.86092e-06
0.000337584
5.61323e-06
0.000335615
5.37379e-06
0.000333733
5.15168e-06
0.000331929
4.95592e-06
0.000330201
4.75848e-06
0.000328542
4.58523e-06
0.000326949
4.41065e-06
0.000325416
4.25616e-06
0.000323941
4.10789e-06
0.00032252
3.9719e-06
0.000321149
3.83492e-06
0.000319826
3.71524e-06
0.000318549
3.59154e-06
0.000317315
3.48124e-06
0.00031612
3.37531e-06
0.000314964
3.27714e-06
0.000313844
3.17826e-06
0.000312759
3.08791e-06
0.000311706
2.99958e-06
0.000310685
2.91563e-06
0.000309693
2.8383e-06
0.00030873
2.76079e-06
0.000307793
2.6896e-06
0.000306882
2.61866e-06
0.000305996
2.55304e-06
0.000305134
2.48862e-06
0.000304295
2.42641e-06
0.000303476
2.3697e-06
0.000302679
2.3117e-06
0.000301902
2.25858e-06
0.000301143
2.20425e-06
0.000300404
2.15495e-06
0.000299682
2.10518e-06
0.000298977
2.05853e-06
0.000298288
2.01316e-06
0.000297615
1.97074e-06
0.000296958
1.92769e-06
0.000296315
1.88734e-06
0.000295686
1.84745e-06
0.000295071
1.80927e-06
0.000294469
1.7721e-06
0.00029388
1.73557e-06
0.000293304
1.70187e-06
0.000292739
1.6679e-06
0.000292186
1.63605e-06
0.000291644
1.60369e-06
0.000291113
1.5737e-06
0.000290592
1.54327e-06
0.000290082
1.51456e-06
0.000289582
1.4864e-06
0.000289091
1.45872e-06
0.00028861
1.43285e-06
0.000288137
1.40673e-06
0.000287674
1.38212e-06
0.000287219
1.35727e-06
0.000286772
1.33388e-06
0.000286333
1.31044e-06
0.000285903
1.28788e-06
0.00028548
1.26596e-06
0.000285064
1.24417e-06
0.000284656
1.22381e-06
0.000284254
1.20321e-06
0.00028386
1.1839e-06
0.000283472
1.16405e-06
0.000283091
1.14559e-06
0.000282716
1.12658e-06
0.000282347
1.10903e-06
0.000281984
1.09101e-06
0.000281628
1.074e-06
0.000281277
1.05719e-06
0.000280932
1.04052e-06
0.000280592
1.02497e-06
0.000280257
1.00892e-06
0.000279928
9.94011e-07
0.000279604
9.78533e-07
0.000279285
9.64317e-07
0.000278971
9.49449e-07
0.000278662
9.35916e-07
0.000278357
9.21598e-07
0.000278057
9.08488e-07
0.000277761
8.95026e-07
0.00027747
8.82258e-07
0.000277183
8.69485e-07
0.0002769
8.57409e-07
0.000276622
8.45043e-07
0.000276347
8.33328e-07
0.000276077
8.21344e-07
0.00027581
8.10268e-07
0.000275547
7.98744e-07
0.000275288
7.87896e-07
0.000275032
7.76964e-07
0.00027478
7.66535e-07
0.000274531
7.56088e-07
0.000274286
7.45742e-07
0.000274045
7.36098e-07
0.000273806
7.26122e-07
0.000273571
7.16553e-07
0.000273339
7.06898e-07
0.00027311
6.98052e-07
0.000272884
6.88567e-07
0.000272661
6.79733e-07
0.000272441
6.70777e-07
0.000272224
6.62543e-07
0.00027201
6.53602e-07
0.000271798
6.45331e-07
0.00027159
6.37239e-07
0.000271384
6.29259e-07
0.00027118
6.20943e-07
0.000270979
6.13392e-07
0.000270781
6.06066e-07
0.000270585
5.98483e-07
0.000270392
5.90432e-07
0.000270201
5.83545e-07
0.000270013
5.76674e-07
0.000269827
5.69447e-07
0.000269643
5.61905e-07
0.000269461
5.55652e-07
0.000269282
5.49252e-07
0.000269105
5.42193e-07
0.00026893
5.35415e-07
0.000268757
5.29596e-07
0.000268586
5.2353e-07
0.000268417
5.16655e-07
0.00026825
5.10681e-07
0.000268086
5.05432e-07
0.000267923
4.99598e-07
0.000267762
4.929e-07
0.000267602
4.87455e-07
0.000267445
4.82552e-07
0.00026729
4.76988e-07
0.000267136
4.70727e-07
0.000266984
4.65798e-07
0.000266834
4.61151e-07
0.000266685
4.5587e-07
0.000266538
4.50053e-07
0.000266393
4.45681e-07
0.000266249
4.41247e-07
0.000266107
4.36375e-07
0.000265967
4.3104e-07
0.000265827
4.27565e-07
0.00026569
4.23263e-07
0.000265553
4.18751e-07
0.000265418
4.13693e-07
0.000265285
4.10991e-07
0.000265152
4.0745e-07
0.000265021
4.03807e-07
0.000264891
3.99865e-07
0.000264762
3.97337e-07
0.000264634
3.95549e-07
0.000264506
3.91743e-07
0.00026438
3.91452e-07
0.000264254
3.86451e-07
0.000264129
3.92153e-07
0.000264004
3.81235e-07
0.000263878
3.97589e-07
0.000263754
3.74698e-07
0.000263627
4.10444e-07
0.000263503
3.71924e-07
0.000263372
4.26253e-07
0.000263243
3.85253e-07
0.000263109
4.41178e-07
0.000262974
3.83442e-07
7.50511e-07
0.000662834
0.000195875
0.000676972
0.00022617
0.000678736
0.0001775
0.000676809
0.000146859
0.00067087
0.000127426
0.000661399
0.000111735
0.000649247
9.88689e-05
0.000634972
8.8785e-05
0.000619283
7.98711e-05
0.000602803
7.20955e-05
0.00058625
6.4745e-05
0.000570142
5.8019e-05
0.000554856
5.20231e-05
0.000540611
4.64934e-05
0.000527453
4.16928e-05
0.000515364
3.7557e-05
0.000504316
3.38865e-05
0.000494214
3.07121e-05
0.000484957
2.79835e-05
0.000476477
2.55257e-05
0.000468691
2.34183e-05
0.000461517
2.15573e-05
0.00045489
1.993e-05
0.000448755
1.84479e-05
0.000443064
1.71341e-05
0.000437765
1.60065e-05
0.000432824
1.49568e-05
0.000428201
1.40399e-05
0.000423875
1.31738e-05
0.000419809
1.24171e-05
0.000415981
1.17245e-05
0.000412372
1.10993e-05
0.000408963
1.05101e-05
0.000405738
9.9765e-06
0.000402681
9.49096e-06
0.000399775
9.0466e-06
0.000397012
8.62386e-06
0.000394381
8.24511e-06
0.000391872
7.88283e-06
0.000389476
7.54722e-06
0.000387184
7.24836e-06
0.000384991
6.95111e-06
0.000382888
6.68796e-06
0.000380871
6.4275e-06
0.000378934
6.1935e-06
0.000377072
5.97002e-06
0.000375279
5.76451e-06
0.000373554
5.56057e-06
0.00037189
5.37931e-06
0.000370285
5.19593e-06
0.000368736
5.03073e-06
0.000367238
4.87247e-06
0.00036579
4.72513e-06
0.00036439
4.57896e-06
0.000363033
4.44428e-06
0.00036172
4.31349e-06
0.000360446
4.18889e-06
0.000359211
4.07377e-06
0.000358012
3.95973e-06
0.000356847
3.85417e-06
0.000355716
3.74978e-06
0.000354616
3.65266e-06
0.000353547
3.55792e-06
0.000352507
3.46645e-06
0.000351494
3.38243e-06
0.000350508
3.29774e-06
0.000349547
3.21944e-06
0.000348611
3.14039e-06
0.000347698
3.06786e-06
0.000346808
2.99538e-06
0.00034594
2.92705e-06
0.000345092
2.86083e-06
0.000344264
2.79867e-06
0.000343456
2.73617e-06
0.000342666
2.67736e-06
0.000341894
2.61945e-06
0.000341139
2.56394e-06
0.000340401
2.51007e-06
0.000339679
2.4572e-06
0.000338973
2.40808e-06
0.000338282
2.35905e-06
0.000337605
2.3128e-06
0.000336943
2.2662e-06
0.000336294
2.22269e-06
0.000335658
2.17893e-06
0.000335035
2.13744e-06
0.000334425
2.09688e-06
0.000333826
2.05706e-06
0.000333239
2.01967e-06
0.000332664
1.98219e-06
0.000332099
1.9467e-06
0.000331546
1.91111e-06
0.000331002
1.87743e-06
0.000330469
1.84386e-06
0.000329945
1.81151e-06
0.000329431
1.7801e-06
0.000328926
1.74893e-06
0.00032843
1.71965e-06
0.000327943
1.69028e-06
0.000327465
1.66255e-06
0.000326994
1.63431e-06
0.000326532
1.60785e-06
0.000326078
1.58084e-06
0.000325631
1.55569e-06
0.000325192
1.53009e-06
0.00032476
1.50581e-06
0.000324336
1.48186e-06
0.000323918
1.45819e-06
0.000323507
1.43594e-06
0.000323103
1.41322e-06
0.000322705
1.39191e-06
0.000322313
1.37004e-06
0.000321928
1.34973e-06
0.000321548
1.32875e-06
0.000321175
1.30942e-06
0.000320807
1.28925e-06
0.000320445
1.27056e-06
0.000320089
1.25155e-06
0.000319738
1.23341e-06
0.000319392
1.21537e-06
0.000319051
1.1982e-06
0.000318715
1.18075e-06
0.000318384
1.16414e-06
0.000318058
1.14727e-06
0.000317737
1.13154e-06
0.000317421
1.11533e-06
0.000317109
1.09997e-06
0.000316801
1.08456e-06
0.000316498
1.06982e-06
0.000316199
1.05509e-06
0.000315904
1.04052e-06
0.000315613
1.02684e-06
0.000315326
1.01284e-06
0.000315044
9.99324e-07
0.000314765
9.85774e-07
0.00031449
9.73214e-07
0.000314218
9.59956e-07
0.000313951
9.47476e-07
0.000313686
9.34924e-07
0.000313426
9.23243e-07
0.000313169
9.10763e-07
0.000312915
8.991e-07
0.000312664
8.87732e-07
0.000312417
8.76491e-07
0.000312173
8.64866e-07
0.000311932
8.5421e-07
0.000311695
8.43911e-07
0.00031146
8.33266e-07
0.000311228
8.22044e-07
0.000310999
8.12302e-07
0.000310773
8.02671e-07
0.00031055
7.92558e-07
0.00031033
7.82053e-07
0.000310112
7.7318e-07
0.000309897
7.6422e-07
0.000309685
7.54408e-07
0.000309476
7.44918e-07
0.000309269
7.3667e-07
0.000309064
7.28188e-07
0.000308862
7.1869e-07
0.000308662
7.10265e-07
0.000308465
7.02804e-07
0.00030827
6.94676e-07
0.000308077
6.85476e-07
0.000307887
6.77788e-07
0.000307699
6.70813e-07
0.000307512
6.63067e-07
0.000307329
6.54457e-07
0.000307147
6.47508e-07
0.000306967
6.409e-07
0.000306789
6.33589e-07
0.000306614
6.25554e-07
0.00030644
6.19418e-07
0.000306268
6.13062e-07
0.000306098
6.06347e-07
0.00030593
5.98897e-07
0.000305764
5.94081e-07
0.0003056
5.87854e-07
0.000305436
5.81793e-07
0.000305275
5.74535e-07
0.000305116
5.70947e-07
0.000304958
5.65394e-07
0.000304801
5.60838e-07
0.000304646
5.54594e-07
0.000304491
5.51859e-07
0.000304339
5.47931e-07
0.000304187
5.44041e-07
0.000304037
5.4147e-07
0.000303886
5.36839e-07
0.000303738
5.40947e-07
0.000303589
5.30202e-07
0.00030344
5.45904e-07
0.000303292
5.22617e-07
0.000303143
5.59967e-07
0.000302995
5.1983e-07
0.000302842
5.79792e-07
0.00030269
5.37e-07
0.000302533
5.97942e-07
0.000302373
5.43312e-07
9.35117e-07
0.000692313
0.00017631
0.000707615
0.000210868
0.00071207
0.000173045
0.000712616
0.000146313
0.000711317
0.000128724
0.000708071
0.000114981
0.000702734
0.000104206
0.000695581
9.59375e-05
0.000686731
8.87212e-05
0.00067623
8.25967e-05
0.000664373
7.66024e-05
0.000651505
7.0887e-05
0.000638049
6.54789e-05
0.00062447
6.00719e-05
0.000611113
5.50503e-05
0.000598222
5.0448e-05
0.000585984
4.61243e-05
0.000574472
4.22239e-05
0.000563697
3.87589e-05
0.000553662
3.55607e-05
0.000544333
3.27468e-05
0.000535659
3.02312e-05
0.000527588
2.8001e-05
0.000520076
2.59605e-05
0.000513079
2.41309e-05
0.000506544
2.25408e-05
0.000500435
2.10657e-05
0.000494711
1.97643e-05
0.000489344
1.85406e-05
0.000484298
1.74631e-05
0.000479547
1.64757e-05
0.000475065
1.55817e-05
0.000470831
1.47433e-05
0.000466826
1.39816e-05
0.000463031
1.32862e-05
0.000459426
1.26513e-05
0.000456
1.20498e-05
0.000452739
1.15064e-05
0.000449632