/*--------------------------------*- C++ -*----------------------------------*\
  =========                 |
  \\      /  F ield         | OpenFOAM: The Open Source CFD Toolbox
   \\    /   O peration     | Website:  https://openfoam.org
    \\  /    A nd           | Version:  12
     \\/     M anipulation  |
\*---------------------------------------------------------------------------*/
FoamFile
{
    format      ascii;
    class       volVectorField;
    location    "1000";
    object      U;
}
// * * * * * * * * * * * * * * * * * * * * * * * * * * * * * * * * * * * * * //

dimensions      [0 1 -1 0 0 0 0];

internalField   nonuniform List<vector> 
20000
(
(0.696546 -0.0953482 0)
(0.391224 -0.00674945 0)
(0.255428 0.000249492 0)
(0.201814 0.000183033 0)
(0.179406 0.000130854 0)
(0.165875 7.44303e-05 0)
(0.156866 1.48745e-05 0)
(0.150832 -6.5531e-06 0)
(0.146227 -1.39446e-05 0)
(0.142709 -9.05493e-06 0)
(0.139525 -8.25167e-06 0)
(0.137101 -7.64947e-06 0)
(0.134762 -2.75307e-06 0)
(0.132852 -6.35025e-06 0)
(0.131168 -6.25589e-06 0)
(0.129713 -4.71131e-06 0)
(0.128343 -2.91951e-06 0)
(0.127119 -1.29482e-06 0)
(0.12595 -8.88763e-08 0)
(0.124897 1.83739e-07 0)
(0.123897 1.47048e-06 0)
(0.122962 2.26423e-06 0)
(0.122077 2.82747e-06 0)
(0.121238 3.10511e-06 0)
(0.120459 3.33468e-06 0)
(0.119707 4.12749e-06 0)
(0.118992 4.20217e-06 0)
(0.118307 4.76216e-06 0)
(0.117649 4.80118e-06 0)
(0.117019 5.12031e-06 0)
(0.116416 5.0716e-06 0)
(0.115833 5.43816e-06 0)
(0.11527 5.4176e-06 0)
(0.11473 5.51131e-06 0)
(0.114206 5.64775e-06 0)
(0.113698 5.65121e-06 0)
(0.11321 5.51583e-06 0)
(0.112738 5.66219e-06 0)
(0.112276 5.61761e-06 0)
(0.111834 5.58674e-06 0)
(0.111399 5.67436e-06 0)
(0.11098 5.52218e-06 0)
(0.110571 5.61561e-06 0)
(0.110174 5.41839e-06 0)
(0.109788 5.48458e-06 0)
(0.109413 5.38206e-06 0)
(0.109045 5.42047e-06 0)
(0.108689 5.25713e-06 0)
(0.108339 5.31873e-06 0)
(0.108 5.14615e-06 0)
(0.107669 5.1522e-06 0)
(0.107346 5.06207e-06 0)
(0.107029 5.04534e-06 0)
(0.10672 4.93257e-06 0)
(0.106418 4.8876e-06 0)
(0.106123 4.80151e-06 0)
(0.105836 4.7445e-06 0)
(0.105554 4.70639e-06 0)
(0.105278 4.60342e-06 0)
(0.105008 4.56552e-06 0)
(0.104744 4.48016e-06 0)
(0.104486 4.43514e-06 0)
(0.104232 4.36546e-06 0)
(0.103984 4.29339e-06 0)
(0.103741 4.27061e-06 0)
(0.103502 4.17e-06 0)
(0.103268 4.13946e-06 0)
(0.10304 4.0424e-06 0)
(0.102815 4.01631e-06 0)
(0.102595 3.93241e-06 0)
(0.102379 3.89333e-06 0)
(0.102167 3.82949e-06 0)
(0.101958 3.78789e-06 0)
(0.101754 3.71597e-06 0)
(0.101553 3.67249e-06 0)
(0.101356 3.61114e-06 0)
(0.101163 3.56076e-06 0)
(0.100973 3.50707e-06 0)
(0.100786 3.44862e-06 0)
(0.100603 3.41803e-06 0)
(0.100423 3.35105e-06 0)
(0.100245 3.31602e-06 0)
(0.100071 3.25396e-06 0)
(0.0999001 3.22049e-06 0)
(0.0997317 3.16233e-06 0)
(0.0995664 3.12316e-06 0)
(0.0994035 3.076e-06 0)
(0.0992436 3.02868e-06 0)
(0.099086 2.9958e-06 0)
(0.0989311 2.94385e-06 0)
(0.0987786 2.91069e-06 0)
(0.0986285 2.86173e-06 0)
(0.0984808 2.8281e-06 0)
(0.0983354 2.78414e-06 0)
(0.0981924 2.74588e-06 0)
(0.0980514 2.70962e-06 0)
(0.0979129 2.66558e-06 0)
(0.0977762 2.64009e-06 0)
(0.0976417 2.59306e-06 0)
(0.0975091 2.56756e-06 0)
(0.0973787 2.52141e-06 0)
(0.0972501 2.49614e-06 0)
(0.0971234 2.45263e-06 0)
(0.0969987 2.42832e-06 0)
(0.0968756 2.38825e-06 0)
(0.0967546 2.35896e-06 0)
(0.0966351 2.32817e-06 0)
(0.0965176 2.29154e-06 0)
(0.0964014 2.27014e-06 0)
(0.0962871 2.22885e-06 0)
(0.0961743 2.21065e-06 0)
(0.0960632 2.16735e-06 0)
(0.0959535 2.15102e-06 0)
(0.0958456 2.11079e-06 0)
(0.0957389 2.09532e-06 0)
(0.0956339 2.05336e-06 0)
(0.0955302 2.03834e-06 0)
(0.095428 2.00341e-06 0)
(0.0953272 1.9821e-06 0)
(0.0952277 1.95125e-06 0)
(0.0951295 1.93511e-06 0)
(0.0950327 1.90361e-06 0)
(0.0949372 1.88019e-06 0)
(0.0948429 1.85242e-06 0)
(0.0947499 1.83895e-06 0)
(0.0946581 1.80643e-06 0)
(0.0945676 1.78354e-06 0)
(0.0944781 1.764e-06 0)
(0.09439 1.74628e-06 0)
(0.0943028 1.71926e-06 0)
(0.0942169 1.69363e-06 0)
(0.094132 1.68565e-06 0)
(0.0940483 1.65505e-06 0)
(0.0939654 1.63427e-06 0)
(0.0938838 1.61293e-06 0)
(0.0938031 1.60837e-06 0)
(0.0937236 1.57125e-06 0)
(0.0936448 1.55653e-06 0)
(0.0935671 1.54196e-06 0)
(0.0934904 1.53152e-06 0)
(0.0934148 1.49045e-06 0)
(0.0933399 1.48084e-06 0)
(0.093266 1.47488e-06 0)
(0.093193 1.44858e-06 0)
(0.093121 1.40839e-06 0)
(0.0930497 1.415e-06 0)
(0.0929793 1.4186e-06 0)
(0.0929098 1.37677e-06 0)
(0.0928412 1.32876e-06 0)
(0.0927733 1.3455e-06 0)
(0.0927062 1.34909e-06 0)
(0.09264 1.30189e-06 0)
(0.0925745 1.26355e-06 0)
(0.0925098 1.28893e-06 0)
(0.092446 1.28555e-06 0)
(0.0923828 1.23211e-06 0)
(0.0923203 1.21173e-06 0)
(0.0922586 1.23411e-06 0)
(0.0921977 1.21446e-06 0)
(0.0921374 1.16083e-06 0)
(0.0920776 1.16728e-06 0)
(0.0920187 1.18898e-06 0)
(0.0919606 1.15486e-06 0)
(0.091903 1.09868e-06 0)
(0.0918459 1.11496e-06 0)
(0.0917896 1.13307e-06 0)
(0.0917341 1.09172e-06 0)
(0.091679 1.04801e-06 0)
(0.0916244 1.06963e-06 0)
(0.0915706 1.08363e-06 0)
(0.0915176 1.03484e-06 0)
(0.0914648 1.00779e-06 0)
(0.0914128 1.02953e-06 0)
(0.0913611 1.04141e-06 0)
(0.0913105 9.76001e-07 0)
(0.0912596 9.81213e-07 0)
(0.09121 1.00435e-06 0)
(0.09116 1.0192e-06 0)
(0.0911121 9.13677e-07 0)
(0.0910624 9.45758e-07 0)
(0.0910157 9.35765e-07 0)
(0.0909661 1.01111e-06 0)
(0.0909214 8.56786e-07 0)
(0.0908714 9.71674e-07 0)
(0.0908284 8.52182e-07 0)
(0.0907773 1.06585e-06 0)
(0.0907374 7.69901e-07 0)
(0.0906839 1.08107e-06 0)
(0.0906472 6.98954e-07 0)
(0.0905899 1.23193e-06 0)
(0.090558 5.76761e-07 0)
(0.0904958 1.37133e-06 0)
(0.0904675 3.88524e-07 0)
(0.0904016 1.61621e-06 0)
(0.0903745 1.99117e-07 0)
(0.0903055 1.87208e-06 0)
(0.0902826 -1.78786e-07 0)
(0.0901967 2.40504e-06 0)
(0.0902171 -2.00632e-06 0)
(0.0900211 1.05073e-05 0)
(0.971307 0.0731487 0)
(0.832589 0.0463967 0)
(0.671413 0.0180088 0)
(0.562239 0.00770761 0)
(0.499335 0.00400586 0)
(0.458863 0.00249295 0)
(0.430567 0.00167204 0)
(0.409987 0.00121805 0)
(0.393933 0.000939269 0)
(0.38119 0.00077561 0)
(0.370333 0.000648573 0)
(0.361511 0.000548501 0)
(0.353689 0.000483933 0)
(0.347069 0.000411359 0)
(0.341269 0.000358683 0)
(0.336209 0.000321769 0)
(0.331586 0.000292806 0)
(0.327471 0.000268779 0)
(0.323663 0.000248762 0)
(0.320225 0.000228255 0)
(0.317028 0.000214082 0)
(0.31408 0.00020069 0)
(0.31133 0.000188994 0)
(0.308758 0.00017707 0)
(0.306378 0.000166402 0)
(0.304123 0.000159377 0)
(0.301999 0.00015111 0)
(0.299988 0.000144943 0)
(0.298079 0.000137873 0)
(0.296271 0.0001323 0)
(0.29455 0.000126402 0)
(0.292906 0.000122168 0)
(0.291332 0.00011712 0)
(0.289834 0.000112745 0)
(0.288392 0.000109078 0)
(0.287008 0.000105252 0)
(0.28568 0.000101095 0)
(0.284407 9.82272e-05 0)
(0.283171 9.49285e-05 0)
(0.281991 9.1862e-05 0)
(0.280842 8.94858e-05 0)
(0.279738 8.64552e-05 0)
(0.278666 8.4324e-05 0)
(0.277632 8.14262e-05 0)
(0.27663 7.94281e-05 0)
(0.275659 7.72026e-05 0)
(0.274714 7.54078e-05 0)
(0.273801 7.30976e-05 0)
(0.27291 7.15792e-05 0)
(0.272047 6.94156e-05 0)
(0.271207 6.78348e-05 0)
(0.270391 6.61342e-05 0)
(0.269594 6.47123e-05 0)
(0.268819 6.30097e-05 0)
(0.268065 6.15907e-05 0)
(0.267329 6.00909e-05 0)
(0.266613 5.8732e-05 0)
(0.265913 5.75299e-05 0)
(0.26523 5.61375e-05 0)
(0.264564 5.49922e-05 0)
(0.263913 5.37318e-05 0)
(0.263278 5.26557e-05 0)
(0.262655 5.15209e-05 0)
(0.262049 5.04173e-05 0)
(0.261453 4.95259e-05 0)
(0.260872 4.84138e-05 0)
(0.260303 4.75304e-05 0)
(0.259746 4.64673e-05 0)
(0.259201 4.56505e-05 0)
(0.258667 4.46905e-05 0)
(0.258144 4.38763e-05 0)
(0.257632 4.30338e-05 0)
(0.25713 4.22858e-05 0)
(0.256637 4.14454e-05 0)
(0.256155 4.07117e-05 0)
(0.255681 3.9943e-05 0)
(0.255217 3.92264e-05 0)
(0.254761 3.85101e-05 0)
(0.254315 3.77956e-05 0)
(0.253876 3.71969e-05 0)
(0.253445 3.6503e-05 0)
(0.253022 3.59128e-05 0)
(0.252607 3.52502e-05 0)
(0.252199 3.46932e-05 0)
(0.251799 3.40676e-05 0)
(0.251405 3.3514e-05 0)
(0.251018 3.29495e-05 0)
(0.250639 3.23907e-05 0)
(0.250265 3.18989e-05 0)
(0.249898 3.13539e-05 0)
(0.249536 3.08759e-05 0)
(0.249181 3.03557e-05 0)
(0.248832 2.9896e-05 0)
(0.248488 2.94089e-05 0)
(0.248151 2.89494e-05 0)
(0.247818 2.8503e-05 0)
(0.247491 2.80421e-05 0)
(0.247169 2.76497e-05 0)
(0.246852 2.72011e-05 0)
(0.24654 2.68204e-05 0)
(0.246233 2.63835e-05 0)
(0.24593 2.60177e-05 0)
(0.245632 2.55985e-05 0)
(0.245339 2.52492e-05 0)
(0.24505 2.48532e-05 0)
(0.244766 2.45013e-05 0)
(0.244486 2.41472e-05 0)
(0.24421 2.37821e-05 0)
(0.243938 2.34717e-05 0)
(0.24367 2.31061e-05 0)
(0.243405 2.28108e-05 0)
(0.243145 2.24497e-05 0)
(0.242889 2.21697e-05 0)
(0.242636 2.18241e-05 0)
(0.242386 2.15579e-05 0)
(0.242141 2.1218e-05 0)
(0.241898 2.09584e-05 0)
(0.24166 2.06482e-05 0)
(0.241424 2.03794e-05 0)
(0.241192 2.00919e-05 0)
(0.240962 1.98475e-05 0)
(0.240737 1.95624e-05 0)
(0.240514 1.93063e-05 0)
(0.240294 1.9036e-05 0)
(0.240077 1.88139e-05 0)
(0.239863 1.854e-05 0)
(0.239652 1.83001e-05 0)
(0.239443 1.80645e-05 0)
(0.239238 1.78432e-05 0)
(0.239034 1.7601e-05 0)
(0.238834 1.73629e-05 0)
(0.238637 1.71742e-05 0)
(0.238442 1.69314e-05 0)
(0.238249 1.67192e-05 0)
(0.238059 1.65031e-05 0)
(0.237871 1.63321e-05 0)
(0.237686 1.6082e-05 0)
(0.237503 1.58962e-05 0)
(0.237322 1.57071e-05 0)
(0.237144 1.55329e-05 0)
(0.236968 1.52814e-05 0)
(0.236794 1.5116e-05 0)
(0.236622 1.49613e-05 0)
(0.236452 1.47575e-05 0)
(0.236285 1.45207e-05 0)
(0.236119 1.44018e-05 0)
(0.235956 1.42796e-05 0)
(0.235794 1.40499e-05 0)
(0.235635 1.38001e-05 0)
(0.235477 1.37131e-05 0)
(0.235321 1.35973e-05 0)
(0.235167 1.3366e-05 0)
(0.235015 1.31483e-05 0)
(0.234865 1.3087e-05 0)
(0.234717 1.29615e-05 0)
(0.23457 1.27233e-05 0)
(0.234425 1.25611e-05 0)
(0.234282 1.24963e-05 0)
(0.23414 1.23387e-05 0)
(0.234 1.21106e-05 0)
(0.233862 1.20239e-05 0)
(0.233725 1.19625e-05 0)
(0.23359 1.17728e-05 0)
(0.233456 1.15458e-05 0)
(0.233324 1.14919e-05 0)
(0.233193 1.14279e-05 0)
(0.233064 1.1226e-05 0)
(0.232936 1.10353e-05 0)
(0.23281 1.10026e-05 0)
(0.232685 1.09333e-05 0)
(0.232562 1.07188e-05 0)
(0.232439 1.05688e-05 0)
(0.232319 1.05487e-05 0)
(0.232199 1.04787e-05 0)
(0.232081 1.02395e-05 0)
(0.231963 1.01691e-05 0)
(0.231848 1.01696e-05 0)
(0.231732 1.01005e-05 0)
(0.231621 9.78167e-06 0)
(0.231506 9.77461e-06 0)
(0.231397 9.72697e-06 0)
(0.231283 9.80373e-06 0)
(0.231179 9.40705e-06 0)
(0.231063 9.58882e-06 0)
(0.230963 9.32132e-06 0)
(0.230845 9.71754e-06 0)
(0.230753 9.03678e-06 0)
(0.230629 9.68551e-06 0)
(0.230544 8.83607e-06 0)
(0.230413 1.00478e-05 0)
(0.230338 8.47293e-06 0)
(0.230197 1.05426e-05 0)
(0.230129 7.95079e-06 0)
(0.229981 1.13745e-05 0)
(0.229915 7.56733e-06 0)
(0.229762 1.21356e-05 0)
(0.229701 7.32818e-06 0)
(0.229518 1.33178e-05 0)
(0.229516 4.45522e-06 0)
(0.229182 3.8698e-05 0)
(1.00819 0.0653171 0)
(0.99085 0.0518138 0)
(0.92709 0.0301995 0)
(0.83099 0.0178219 0)
(0.755583 0.0112166 0)
(0.697513 0.00756697 0)
(0.652391 0.00535879 0)
(0.617044 0.00401813 0)
(0.588724 0.00314443 0)
(0.565659 0.00257516 0)
(0.546409 0.00214594 0)
(0.530288 0.0018117 0)
(0.51645 0.00157318 0)
(0.50454 0.00135322 0)
(0.494121 0.0011836 0)
(0.484972 0.00105612 0)
(0.476741 0.000952216 0)
(0.46942 0.000864668 0)
(0.462745 0.000791903 0)
(0.456714 0.000723972 0)
(0.451172 0.000671181 0)
(0.446093 0.00062307 0)
(0.441395 0.000581729 0)
(0.437034 0.00054186 0)
(0.433006 0.00050662 0)
(0.429226 0.000479697 0)
(0.425689 0.000452261 0)
(0.422363 0.000429682 0)
(0.419228 0.000406624 0)
(0.416278 0.000387176 0)
(0.41348 0.000368484 0)
(0.410827 0.000353005 0)
(0.408302 0.000336903 0)
(0.405907 0.000322547 0)
(0.403618 0.000310008 0)
(0.401434 0.000297771 0)
(0.399343 0.000285372 0)
(0.397347 0.000275523 0)
(0.395422 0.000265258 0)
(0.393588 0.000255701 0)
(0.391812 0.000247717 0)
(0.390111 0.000238873 0)
(0.388467 0.000231714 0)
(0.386885 0.000223545 0)
(0.385358 0.000216998 0)
(0.383884 0.000210416 0)
(0.382454 0.00020461 0)
(0.381075 0.000198145 0)
(0.379736 0.000193101 0)
(0.378441 0.000187148 0)
(0.377185 0.000182229 0)
(0.375967 0.000177323 0)
(0.374783 0.00017296 0)
(0.373633 0.000168193 0)
(0.372516 0.000164008 0)
(0.371429 0.000159773 0)
(0.370373 0.000155828 0)
(0.369344 0.000152257 0)
(0.368342 0.000148435 0)
(0.367366 0.000145083 0)
(0.366414 0.000141593 0)
(0.365487 0.000138478 0)
(0.364581 0.000135311 0)
(0.363699 0.000132249 0)
(0.362835 0.000129595 0)
(0.361994 0.000126633 0)
(0.36117 0.000124074 0)
(0.360366 0.000121263 0)
(0.35958 0.000118886 0)
(0.358811 0.000116326 0)
(0.358059 0.000114022 0)
(0.357324 0.000111726 0)
(0.356603 0.000109625 0)
(0.355898 0.000107389 0)
(0.355208 0.000105355 0)
(0.354531 0.00010329 0)
(0.353869 0.000101336 0)
(0.353219 9.94061e-05 0)
(0.352583 9.74993e-05 0)
(0.351959 9.58107e-05 0)
(0.351348 9.40013e-05 0)
(0.350747 9.23733e-05 0)
(0.350158 9.06429e-05 0)
(0.349581 8.91063e-05 0)
(0.349014 8.74729e-05 0)
(0.348458 8.59742e-05 0)
(0.347911 8.4478e-05 0)
(0.347375 8.30015e-05 0)
(0.346848 8.16587e-05 0)
(0.34633 8.0244e-05 0)
(0.345822 7.89513e-05 0)
(0.345322 7.76005e-05 0)
(0.344831 7.63645e-05 0)
(0.344348 7.50925e-05 0)
(0.343874 7.38792e-05 0)
(0.343407 7.26985e-05 0)
(0.342949 7.15061e-05 0)
(0.342498 7.04358e-05 0)
(0.342054 6.92925e-05 0)
(0.341617 6.82649e-05 0)
(0.341188 6.71558e-05 0)
(0.340765 6.61706e-05 0)
(0.340349 6.51049e-05 0)
(0.33994 6.41657e-05 0)
(0.339537 6.31558e-05 0)
(0.33914 6.22297e-05 0)
(0.338749 6.13048e-05 0)
(0.338365 6.03725e-05 0)
(0.337986 5.95368e-05 0)
(0.337613 5.86225e-05 0)
(0.337246 5.78218e-05 0)
(0.336884 5.69294e-05 0)
(0.336527 5.61672e-05 0)
(0.336176 5.53098e-05 0)
(0.33583 5.45844e-05 0)
(0.335489 5.37503e-05 0)
(0.335153 5.30443e-05 0)
(0.334821 5.22702e-05 0)
(0.334495 5.15636e-05 0)
(0.334173 5.08373e-05 0)
(0.333855 5.01807e-05 0)
(0.333542 4.9468e-05 0)
(0.333233 4.88081e-05 0)
(0.332929 4.81238e-05 0)
(0.332629 4.75226e-05 0)
(0.332333 4.68476e-05 0)
(0.332041 4.62333e-05 0)
(0.331753 4.562e-05 0)
(0.331469 4.50397e-05 0)
(0.331188 4.44342e-05 0)
(0.330912 4.38371e-05 0)
(0.330639 4.33167e-05 0)
(0.33037 4.27258e-05 0)
(0.330104 4.2182e-05 0)
(0.329841 4.16313e-05 0)
(0.329582 4.11538e-05 0)
(0.329327 4.05693e-05 0)
(0.329075 4.00783e-05 0)
(0.328826 3.95796e-05 0)
(0.32858 3.91168e-05 0)
(0.328337 3.85467e-05 0)
(0.328098 3.80966e-05 0)
(0.327861 3.76639e-05 0)
(0.327627 3.71752e-05 0)
(0.327397 3.66423e-05 0)
(0.327169 3.62671e-05 0)
(0.326944 3.58945e-05 0)
(0.326722 3.53893e-05 0)
(0.326502 3.4849e-05 0)
(0.326285 3.45297e-05 0)
(0.326071 3.41778e-05 0)
(0.32586 3.36843e-05 0)
(0.325651 3.31967e-05 0)
(0.325444 3.29244e-05 0)
(0.32524 3.2576e-05 0)
(0.325039 3.20821e-05 0)
(0.324839 3.16818e-05 0)
(0.324643 3.14168e-05 0)
(0.324448 3.10422e-05 0)
(0.324256 3.05696e-05 0)
(0.324066 3.02806e-05 0)
(0.323878 3.00351e-05 0)
(0.323693 2.96299e-05 0)
(0.323509 2.91661e-05 0)
(0.323327 2.89312e-05 0)
(0.323148 2.86931e-05 0)
(0.322971 2.82825e-05 0)
(0.322796 2.78747e-05 0)
(0.322622 2.76797e-05 0)
(0.322451 2.74427e-05 0)
(0.322282 2.70272e-05 0)
(0.322113 2.66773e-05 0)
(0.321948 2.65168e-05 0)
(0.321783 2.6284e-05 0)
(0.321622 2.58584e-05 0)
(0.32146 2.56127e-05 0)
(0.321303 2.55057e-05 0)
(0.321143 2.52697e-05 0)
(0.320991 2.47711e-05 0)
(0.320833 2.46014e-05 0)
(0.320684 2.4478e-05 0)
(0.320527 2.44253e-05 0)
(0.320385 2.3884e-05 0)
(0.320226 2.39449e-05 0)
(0.32009 2.36037e-05 0)
(0.319929 2.39415e-05 0)
(0.319801 2.31132e-05 0)
(0.319634 2.37773e-05 0)
(0.319516 2.27567e-05 0)
(0.31934 2.4212e-05 0)
(0.319233 2.21923e-05 0)
(0.319047 2.50018e-05 0)
(0.31895 2.13887e-05 0)
(0.318753 2.64485e-05 0)
(0.31866 2.09075e-05 0)
(0.318457 2.77566e-05 0)
(0.318367 2.13581e-05 0)
(0.318132 2.95464e-05 0)
(0.318096 1.83479e-05 0)
(0.317722 6.90197e-05 0)
(1.0114 0.0502387 0)
(1.03997 0.0487472 0)
(1.02553 0.0348175 0)
(0.984217 0.0254169 0)
(0.930306 0.0186105 0)
(0.877831 0.0138914 0)
(0.829977 0.0105621 0)
(0.78781 0.00828081 0)
(0.751551 0.00664264 0)
(0.720524 0.00547694 0)
(0.694091 0.00458154 0)
(0.671334 0.00388193 0)
(0.651692 0.00335561 0)
(0.634553 0.00290247 0)
(0.619474 0.00254324 0)
(0.60614 0.00226145 0)
(0.594219 0.00202785 0)
(0.58358 0.00183137 0)
(0.573942 0.00166733 0)
(0.565224 0.00151956 0)
(0.557256 0.00139942 0)
(0.549973 0.00129194 0)
(0.543265 0.00119973 0)
(0.537062 0.00111341 0)
(0.531337 0.00103754 0)
(0.52599 0.000976226 0)
(0.521008 0.000916722 0)
(0.51634 0.000866233 0)
(0.511958 0.000816728 0)
(0.507847 0.000774184 0)
(0.50396 0.000734577 0)
(0.500289 0.000700154 0)
(0.49681 0.000666088 0)
(0.493517 0.000635475 0)
(0.490382 0.000608222 0)
(0.487402 0.000582479 0)
(0.484552 0.000557157 0)
(0.481842 0.000535793 0)
(0.479238 0.000514463 0)
(0.476759 0.000494624 0)
(0.47437 0.000477556 0)
(0.472084 0.000459649 0)
(0.469883 0.000444418 0)
(0.46777 0.000428222 0)
(0.465733 0.00041449 0)
(0.463772 0.000401092 0)
(0.461876 0.000388958 0)
(0.460049 0.000376199 0)
(0.458282 0.000365574 0)
(0.456574 0.000353943 0)
(0.454922 0.000343884 0)
(0.453322 0.000334098 0)
(0.45177 0.000325179 0)
(0.450266 0.000315846 0)
(0.448807 0.000307476 0)
(0.447389 0.000299162 0)
(0.446014 0.000291324 0)
(0.444677 0.000284163 0)
(0.443377 0.000276766 0)
(0.442112 0.000270107 0)
(0.44088 0.000263339 0)
(0.439682 0.000257179 0)
(0.438513 0.00025103 0)
(0.437376 0.000245091 0)
(0.436265 0.000239793 0)
(0.435183 0.000234161 0)
(0.434126 0.000229129 0)
(0.433095 0.000223814 0)
(0.432088 0.000219138 0)
(0.431105 0.000214282 0)
(0.430144 0.000209806 0)
(0.429205 0.000205409 0)
(0.428286 0.000201338 0)
(0.427388 0.000197113 0)
(0.426509 0.000193203 0)
(0.425649 0.000189291 0)
(0.424808 0.000185565 0)
(0.423984 0.00018191 0)
(0.423177 0.000178311 0)
(0.422387 0.000175049 0)
(0.421612 0.000171672 0)
(0.420853 0.000168561 0)
(0.420109 0.000165334 0)
(0.41938 0.0001624 0)
(0.418664 0.000159359 0)
(0.417962 0.000156524 0)
(0.417274 0.000153721 0)
(0.416599 0.00015096 0)
(0.415935 0.000148412 0)
(0.415285 0.000145789 0)
(0.414646 0.00014335 0)
(0.414018 0.000140848 0)
(0.413402 0.000138523 0)
(0.412796 0.000136164 0)
(0.412202 0.000133902 0)
(0.411617 0.000131702 0)
(0.411043 0.000129499 0)
(0.410478 0.000127478 0)
(0.409923 0.000125383 0)
(0.409377 0.000123454 0)
(0.408841 0.000121426 0)
(0.408313 0.000119579 0)
(0.407793 0.000117633 0)
(0.407283 0.000115875 0)
(0.40678 0.000114029 0)
(0.406286 0.000112311 0)
(0.405799 0.000110604 0)
(0.40532 0.000108899 0)
(0.404848 0.000107336 0)
(0.404384 0.00010568 0)
(0.403927 0.000104181 0)
(0.403477 0.000102575 0)
(0.403034 0.000101145 0)
(0.402597 9.96019e-05 0)
(0.402167 9.82414e-05 0)
(0.401744 9.67469e-05 0)
(0.401326 9.54259e-05 0)
(0.400915 9.40296e-05 0)
(0.40051 9.27255e-05 0)
(0.400111 9.14076e-05 0)
(0.399717 9.01866e-05 0)
(0.39933 8.89008e-05 0)
(0.398947 8.76934e-05 0)
(0.39857 8.64542e-05 0)
(0.398199 8.53348e-05 0)
(0.397832 8.41255e-05 0)
(0.397471 8.30045e-05 0)
(0.397114 8.18835e-05 0)
(0.396763 8.08172e-05 0)
(0.396416 7.97251e-05 0)
(0.396075 7.86477e-05 0)
(0.395737 7.76756e-05 0)
(0.395405 7.66232e-05 0)
(0.395076 7.56314e-05 0)
(0.394752 7.46341e-05 0)
(0.394432 7.37404e-05 0)
(0.394117 7.27181e-05 0)
(0.393806 7.18126e-05 0)
(0.393499 7.08997e-05 0)
(0.393195 7.00488e-05 0)
(0.392896 6.90656e-05 0)
(0.3926 6.82282e-05 0)
(0.392309 6.74201e-05 0)
(0.392021 6.65569e-05 0)
(0.391737 6.56388e-05 0)
(0.391456 6.49106e-05 0)
(0.391179 6.41977e-05 0)
(0.390905 6.33368e-05 0)
(0.390635 6.24235e-05 0)
(0.390368 6.1781e-05 0)
(0.390104 6.111e-05 0)
(0.389844 6.02788e-05 0)
(0.389586 5.94419e-05 0)
(0.389332 5.88751e-05 0)
(0.389081 5.82295e-05 0)
(0.388833 5.74081e-05 0)
(0.388588 5.6692e-05 0)
(0.388346 5.6153e-05 0)
(0.388107 5.54959e-05 0)
(0.387871 5.47073e-05 0)
(0.387637 5.41382e-05 0)
(0.387406 5.36451e-05 0)
(0.387178 5.2968e-05 0)
(0.386952 5.21982e-05 0)
(0.386729 5.17077e-05 0)
(0.386509 5.12373e-05 0)
(0.386291 5.05676e-05 0)
(0.386076 4.98738e-05 0)
(0.385863 4.94485e-05 0)
(0.385652 4.89898e-05 0)
(0.385445 4.83305e-05 0)
(0.385238 4.77121e-05 0)
(0.385035 4.73507e-05 0)
(0.384833 4.69004e-05 0)
(0.384635 4.6256e-05 0)
(0.384436 4.57586e-05 0)
(0.384243 4.55006e-05 0)
(0.384047 4.50421e-05 0)
(0.38386 4.43553e-05 0)
(0.383666 4.39289e-05 0)
(0.383484 4.37121e-05 0)
(0.383292 4.34448e-05 0)
(0.383116 4.27917e-05 0)
(0.382923 4.26027e-05 0)
(0.382755 4.22344e-05 0)
(0.382559 4.23694e-05 0)
(0.3824 4.1508e-05 0)
(0.382199 4.1984e-05 0)
(0.382051 4.0952e-05 0)
(0.381841 4.24011e-05 0)
(0.381705 4.02028e-05 0)
(0.381484 4.33668e-05 0)
(0.38136 3.91868e-05 0)
(0.381127 4.53777e-05 0)
(0.38101 3.86438e-05 0)
(0.380767 4.73204e-05 0)
(0.380653 3.99797e-05 0)
(0.38038 4.95858e-05 0)
(0.380314 3.76079e-05 0)
(0.379911 9.98717e-05 0)
(1.00996 0.045083 0)
(1.05306 0.0485504 0)
(1.05269 0.0361579 0)
(1.04254 0.0289504 0)
(1.01961 0.023362 0)
(0.988619 0.0190725 0)
(0.954427 0.0156868 0)
(0.918986 0.0130654 0)
(0.884527 0.0109463 0)
(0.851968 0.00927072 0)
(0.822299 0.00788789 0)
(0.795475 0.00676171 0)
(0.771516 0.00586884 0)
(0.750125 0.00511043 0)
(0.73102 0.00449694 0)
(0.71389 0.00400108 0)
(0.698519 0.00358204 0)
(0.6847 0.00322928 0)
(0.672164 0.00293326 0)
(0.660779 0.00266915 0)
(0.650395 0.0024495 0)
(0.640884 0.00225522 0)
(0.632134 0.00208746 0)
(0.624052 0.0019333 0)
(0.616587 0.00179781 0)
(0.609634 0.00168461 0)
(0.603166 0.0015774 0)
(0.597119 0.00148516 0)
(0.591455 0.00139659 0)
(0.58615 0.00131989 0)
(0.581145 0.00124938 0)
(0.576429 0.00118663 0)
(0.57197 0.00112624 0)
(0.567756 0.00107179 0)
(0.563755 0.00102273 0)
(0.55996 0.000977223 0)
(0.556336 0.000933282 0)
(0.552895 0.000894943 0)
(0.549599 0.000857556 0)
(0.546464 0.000822845 0)
(0.543452 0.000792471 0)
(0.540573 0.000761504 0)
(0.537808 0.000734545 0)
(0.535155 0.000706994 0)
(0.532604 0.000682874 0)
(0.530152 0.00065964 0)
(0.527786 0.000638393 0)
(0.525509 0.00061674 0)
(0.52331 0.000598063 0)
(0.521189 0.000578454 0)
(0.51914 0.000561103 0)
(0.517158 0.000544398 0)
(0.515239 0.000528977 0)
(0.513381 0.000513277 0)
(0.511581 0.000499009 0)
(0.509836 0.000484995 0)
(0.508144 0.000471701 0)
(0.506501 0.000459485 0)
(0.504905 0.000447137 0)
(0.503354 0.000435857 0)
(0.501846 0.000424555 0)
(0.500381 0.000414146 0)
(0.498952 0.00040388 0)
(0.497564 0.000393964 0)
(0.49621 0.000384976 0)
(0.494892 0.000375688 0)
(0.493606 0.000367238 0)
(0.492353 0.000358515 0)
(0.49113 0.000350667 0)
(0.489937 0.000342682 0)
(0.488772 0.00033523 0)
(0.487635 0.000327963 0)
(0.486524 0.000321188 0)
(0.485437 0.000314268 0)
(0.484376 0.000307804 0)
(0.483337 0.000301392 0)
(0.482323 0.000295262 0)
(0.481329 0.00028928 0)
(0.480357 0.000283399 0)
(0.479406 0.000277999 0)
(0.478474 0.000272515 0)
(0.477562 0.0002674 0)
(0.476668 0.000262171 0)
(0.475792 0.00025735 0)
(0.474933 0.000252429 0)
(0.474092 0.0002478 0)
(0.473267 0.000243251 0)
(0.472458 0.000238776 0)
(0.471665 0.00023461 0)
(0.470886 0.000230379 0)
(0.470122 0.000226407 0)
(0.469372 0.000222379 0)
(0.468636 0.0002186 0)
(0.467913 0.000214799 0)
(0.467204 0.000211145 0)
(0.466506 0.000207595 0)
(0.465822 0.000204056 0)
(0.465149 0.000200768 0)
(0.464488 0.000197418 0)
(0.463838 0.000194292 0)
(0.4632 0.00019106 0)
(0.462572 0.000188071 0)
(0.461954 0.000184972 0)
(0.461348 0.000182129 0)
(0.46075 0.00017919 0)
(0.460164 0.000176428 0)
(0.459585 0.000173694 0)
(0.459017 0.000170978 0)
(0.458458 0.000168454 0)
(0.457908 0.000165833 0)
(0.457366 0.000163414 0)
(0.456833 0.000160879 0)
(0.456307 0.000158573 0)
(0.455791 0.000156139 0)
(0.455282 0.000153943 0)
(0.45478 0.000151594 0)
(0.454287 0.000149466 0)
(0.4538 0.000147263 0)
(0.453321 0.000145179 0)
(0.452849 0.000143093 0)
(0.452384 0.000141133 0)
(0.451926 0.000139106 0)
(0.451474 0.000137187 0)
(0.451029 0.00013523 0)
(0.450591 0.000133434 0)
(0.450158 0.000131537 0)
(0.449732 0.000129758 0)
(0.449311 0.00012798 0)
(0.448897 0.000126282 0)
(0.448488 0.000124562 0)
(0.448085 0.000122865 0)
(0.447688 0.000121304 0)
(0.447296 0.000119659 0)
(0.446909 0.000118088 0)
(0.446528 0.000116516 0)
(0.446151 0.00011508 0)
(0.44578 0.0001135 0)
(0.445413 0.000112058 0)
(0.445052 0.000110611 0)
(0.444695 0.000109258 0)
(0.444343 0.000107752 0)
(0.443995 0.000106413 0)
(0.443652 0.000105118 0)
(0.443314 0.000103777 0)
(0.442979 0.000102372 0)
(0.442649 0.000101182 0)
(0.442324 0.000100026 0)
(0.442002 9.87172e-05 0)
(0.441684 9.73362e-05 0)
(0.441371 9.62685e-05 0)
(0.441061 9.51835e-05 0)
(0.440755 9.39289e-05 0)
(0.440453 9.26523e-05 0)
(0.440155 9.16959e-05 0)
(0.43986 9.06676e-05 0)
(0.439569 8.94385e-05 0)
(0.439282 8.83192e-05 0)
(0.438998 8.74197e-05 0)
(0.438717 8.64049e-05 0)
(0.43844 8.52227e-05 0)
(0.438166 8.42866e-05 0)
(0.437895 8.34682e-05 0)
(0.437627 8.24541e-05 0)
(0.437363 8.13048e-05 0)
(0.437101 8.04756e-05 0)
(0.436843 7.97014e-05 0)
(0.436588 7.87136e-05 0)
(0.436335 7.76617e-05 0)
(0.436086 7.69295e-05 0)
(0.435839 7.61832e-05 0)
(0.435595 7.52286e-05 0)
(0.435354 7.42709e-05 0)
(0.435116 7.36396e-05 0)
(0.434879 7.29083e-05 0)
(0.434647 7.20021e-05 0)
(0.434414 7.1177e-05 0)
(0.434188 7.07124e-05 0)
(0.433959 6.99715e-05 0)
(0.433739 6.90723e-05 0)
(0.433513 6.83041e-05 0)
(0.433299 6.7956e-05 0)
(0.433075 6.73957e-05 0)
(0.432869 6.66332e-05 0)
(0.432644 6.6091e-05 0)
(0.432446 6.56994e-05 0)
(0.43222 6.55236e-05 0)
(0.432032 6.46781e-05 0)
(0.4318 6.48286e-05 0)
(0.431623 6.38521e-05 0)
(0.431383 6.51357e-05 0)
(0.43122 6.28981e-05 0)
(0.430968 6.61807e-05 0)
(0.430818 6.16906e-05 0)
(0.430554 6.86334e-05 0)
(0.430414 6.11305e-05 0)
(0.430136 7.13591e-05 0)
(0.430001 6.33766e-05 0)
(0.429694 7.40845e-05 0)
(0.429602 6.22432e-05 0)
(0.429173 0.00013274 0)
(1.00868 0.0410966 0)
(1.05097 0.0471192 0)
(1.05922 0.035197 0)
(1.05737 0.0295426 0)
(1.05143 0.0253024 0)
(1.03898 0.021776 0)
(1.02199 0.0190025 0)
(1.00103 0.0167638 0)
(0.977519 0.0147763 0)
(0.952114 0.0130537 0)
(0.926172 0.0114846 0)
(0.900537 0.0101017 0)
(0.875974 0.0089185 0)
(0.852914 0.00786983 0)
(0.831583 0.00698796 0)
(0.811916 0.00624962 0)
(0.793917 0.00561007 0)
(0.777488 0.0050657 0)
(0.762441 0.00460373 0)
(0.748647 0.00419129 0)
(0.736016 0.00384172 0)
(0.724386 0.00353373 0)
(0.713664 0.0032662 0)
(0.703734 0.00302222 0)
(0.69455 0.0028069 0)
(0.685999 0.00262382 0)
(0.67804 0.00245267 0)
(0.670601 0.00230386 0)
(0.663639 0.00216278 0)
(0.657117 0.00203996 0)
(0.650972 0.0019275 0)
(0.645189 0.00182629 0)
(0.639727 0.00173045 0)
(0.634568 0.00164378 0)
(0.629676 0.00156513 0)
(0.625042 0.00149295 0)
(0.620625 0.00142402 0)
(0.616432 0.00136267 0)
(0.612424 0.00130369 0)
(0.608614 0.00124901 0)
(0.60496 0.00120058 0)
(0.601472 0.00115207 0)
(0.598127 0.00110932 0)
(0.594921 0.00106664 0)
(0.591841 0.00102857 0)
(0.588885 0.000992125 0)
(0.586038 0.000958653 0)
(0.5833 0.000925197 0)
(0.580661 0.000895707 0)
(0.578116 0.000865557 0)
(0.575661 0.000838529 0)
(0.573289 0.000812611 0)
(0.570995 0.000788538 0)
(0.568777 0.000764472 0)
(0.566631 0.000742384 0)
(0.564551 0.000720866 0)
(0.562537 0.000700388 0)
(0.560583 0.000681496 0)
(0.558687 0.000662673 0)
(0.556847 0.000645318 0)
(0.555059 0.00062809 0)
(0.553323 0.000612105 0)
(0.551632 0.000596464 0)
(0.549991 0.000581359 0)
(0.548392 0.000567533 0)
(0.546836 0.000553501 0)
(0.545319 0.000540588 0)
(0.543842 0.000527462 0)
(0.542402 0.000515487 0)
(0.540997 0.000503459 0)
(0.539628 0.000492151 0)
(0.538291 0.000481172 0)
(0.536986 0.000470887 0)
(0.535712 0.000460498 0)
(0.534467 0.000450741 0)
(0.53325 0.000441114 0)
(0.532062 0.000431892 0)
(0.530899 0.000422928 0)
(0.529762 0.000414124 0)
(0.52865 0.000405971 0)
(0.527562 0.000397796 0)
(0.526496 0.000390107 0)
(0.525453 0.000382327 0)
(0.524432 0.00037509 0)
(0.523431 0.000367779 0)
(0.522451 0.000360862 0)
(0.52149 0.00035409 0)
(0.520549 0.000347437 0)
(0.519626 0.000341206 0)
(0.51872 0.000334936 0)
(0.517833 0.000329014 0)
(0.516961 0.000323055 0)
(0.516107 0.000317429 0)
(0.515268 0.000311808 0)
(0.514445 0.000306393 0)
(0.513636 0.000301135 0)
(0.512843 0.000295911 0)
(0.512063 0.000291018 0)
(0.511298 0.000286089 0)
(0.510545 0.00028145 0)
(0.509806 0.000276704 0)
(0.50908 0.000272274 0)
(0.508366 0.000267732 0)
(0.507665 0.000263521 0)
(0.506974 0.000259214 0)
(0.506296 0.00025514 0)
(0.505629 0.000251118 0)
(0.504973 0.000247136 0)
(0.504328 0.000243405 0)
(0.503693 0.000239578 0)
(0.503068 0.000236005 0)
(0.502453 0.000232314 0)
(0.501848 0.000228906 0)
(0.501252 0.000225367 0)
(0.500666 0.000222123 0)
(0.500089 0.000218714 0)
(0.49952 0.000215577 0)
(0.49896 0.00021237 0)
(0.498409 0.000209314 0)
(0.497866 0.000206273 0)
(0.497331 0.000203391 0)
(0.496804 0.000200443 0)
(0.496285 0.000197638 0)
(0.495774 0.000194794 0)
(0.49527 0.000192153 0)
(0.494773 0.000189406 0)
(0.494283 0.00018681 0)
(0.4938 0.000184218 0)
(0.493325 0.000181736 0)
(0.492855 0.00017924 0)
(0.492393 0.000176777 0)
(0.491937 0.000174483 0)
(0.491487 0.000172107 0)
(0.491043 0.00016982 0)
(0.490606 0.000167537 0)
(0.490174 0.000165428 0)
(0.489749 0.000163164 0)
(0.489329 0.000161059 0)
(0.488915 0.000158953 0)
(0.488506 0.000156977 0)
(0.488103 0.000154831 0)
(0.487704 0.000152873 0)
(0.487312 0.000150976 0)
(0.486924 0.000149048 0)
(0.486542 0.000147046 0)
(0.486164 0.000145285 0)
(0.485791 0.000143579 0)
(0.485423 0.000141723 0)
(0.48506 0.000139773 0)
(0.484701 0.000138178 0)
(0.484347 0.000136581 0)
(0.483997 0.00013481 0)
(0.483651 0.000133 0)
(0.48331 0.000131559 0)
(0.482974 0.000130058 0)
(0.482641 0.000128334 0)
(0.482312 0.000126723 0)
(0.481988 0.000125376 0)
(0.481667 0.000123921 0)
(0.48135 0.000122263 0)
(0.481037 0.000120876 0)
(0.480728 0.000119653 0)
(0.480422 0.000118226 0)
(0.48012 0.00011662 0)
(0.479822 0.000115374 0)
(0.479527 0.000114223 0)
(0.479236 0.000112847 0)
(0.478947 0.000111363 0)
(0.478663 0.000110252 0)
(0.478381 0.00010915 0)
(0.478103 0.000107836 0)
(0.477827 0.000106468 0)
(0.477556 0.000105502 0)
(0.477286 0.000104425 0)
(0.477021 0.000103199 0)
(0.476756 0.000101975 0)
(0.476497 0.000101251 0)
(0.476237 0.000100167 0)
(0.475986 9.90102e-05 0)
(0.475728 9.78258e-05 0)
(0.475484 9.7304e-05 0)
(0.47523 9.63811e-05 0)
(0.474994 9.54802e-05 0)
(0.474739 9.45034e-05 0)
(0.474512 9.40703e-05 0)
(0.474256 9.35028e-05 0)