/*--------------------------------*- C++ -*----------------------------------*\
  =========                 |
  \\      /  F ield         | OpenFOAM: The Open Source CFD Toolbox
   \\    /   O peration     | Website:  https://openfoam.org
    \\  /    A nd           | Version:  12
     \\/     M anipulation  |
\*---------------------------------------------------------------------------*/
FoamFile
{
    format      ascii;
    class       volVectorField;
    location    "900";
    object      U;
}
// * * * * * * * * * * * * * * * * * * * * * * * * * * * * * * * * * * * * * //

dimensions      [0 1 -1 0 0 0 0];

internalField   nonuniform List<vector> 
20000
(
(0.696546 -0.0953483 0)
(0.391224 -0.0067495 0)
(0.255428 0.000249414 0)
(0.201814 0.000182999 0)
(0.179405 0.000130716 0)
(0.165877 7.42982e-05 0)
(0.156868 1.49027e-05 0)
(0.15083 -6.61391e-06 0)
(0.146228 -1.41579e-05 0)
(0.142711 -8.99311e-06 0)
(0.139523 -8.07958e-06 0)
(0.137097 -7.65872e-06 0)
(0.134759 -2.88435e-06 0)
(0.132851 -6.4152e-06 0)
(0.131168 -6.22998e-06 0)
(0.129713 -4.65132e-06 0)
(0.128342 -2.86686e-06 0)
(0.127117 -1.2529e-06 0)
(0.125948 -5.9823e-08 0)
(0.124895 1.89405e-07 0)
(0.123895 1.45507e-06 0)
(0.122961 2.26133e-06 0)
(0.122075 2.85292e-06 0)
(0.121236 3.13529e-06 0)
(0.120457 3.34317e-06 0)
(0.119705 4.12726e-06 0)
(0.11899 4.20752e-06 0)
(0.118305 4.7726e-06 0)
(0.117647 4.81089e-06 0)
(0.117018 5.12426e-06 0)
(0.116414 5.06856e-06 0)
(0.115832 5.43879e-06 0)
(0.115269 5.42937e-06 0)
(0.114729 5.52301e-06 0)
(0.114205 5.65323e-06 0)
(0.113697 5.65127e-06 0)
(0.113209 5.51282e-06 0)
(0.112737 5.66314e-06 0)
(0.112275 5.6249e-06 0)
(0.111833 5.59708e-06 0)
(0.111398 5.68074e-06 0)
(0.11098 5.52352e-06 0)
(0.11057 5.61386e-06 0)
(0.110174 5.41763e-06 0)
(0.109788 5.48653e-06 0)
(0.109413 5.38751e-06 0)
(0.109045 5.42721e-06 0)
(0.108688 5.26315e-06 0)
(0.108339 5.32371e-06 0)
(0.107999 5.14997e-06 0)
(0.107668 5.15412e-06 0)
(0.107345 5.06329e-06 0)
(0.107028 5.04723e-06 0)
(0.106719 4.93509e-06 0)
(0.106418 4.88914e-06 0)
(0.106123 4.80267e-06 0)
(0.105836 4.74643e-06 0)
(0.105553 4.70925e-06 0)
(0.105278 4.6069e-06 0)
(0.105008 4.56768e-06 0)
(0.104744 4.48292e-06 0)
(0.104485 4.43727e-06 0)
(0.104232 4.36747e-06 0)
(0.103984 4.29432e-06 0)
(0.103741 4.2717e-06 0)
(0.103502 4.17034e-06 0)
(0.103268 4.13919e-06 0)
(0.10304 4.04152e-06 0)
(0.102815 4.01599e-06 0)
(0.102595 3.93193e-06 0)
(0.102379 3.89247e-06 0)
(0.102167 3.82828e-06 0)
(0.101959 3.78741e-06 0)
(0.101754 3.71532e-06 0)
(0.101554 3.67126e-06 0)
(0.101356 3.60923e-06 0)
(0.101163 3.55938e-06 0)
(0.100973 3.5061e-06 0)
(0.100787 3.4472e-06 0)
(0.100603 3.41609e-06 0)
(0.100423 3.34951e-06 0)
(0.100246 3.31503e-06 0)
(0.100072 3.25284e-06 0)
(0.0999005 3.21908e-06 0)
(0.0997322 3.16088e-06 0)
(0.0995668 3.12232e-06 0)
(0.099404 3.07532e-06 0)
(0.0992441 3.0281e-06 0)
(0.0990865 2.9948e-06 0)
(0.0989316 2.943e-06 0)
(0.0987791 2.90988e-06 0)
(0.098629 2.86074e-06 0)
(0.0984814 2.82679e-06 0)
(0.098336 2.78273e-06 0)
(0.098193 2.74416e-06 0)
(0.0980521 2.70765e-06 0)
(0.0979135 2.66398e-06 0)
(0.0977768 2.63884e-06 0)
(0.0976424 2.59127e-06 0)
(0.0975098 2.56513e-06 0)
(0.0973793 2.51967e-06 0)
(0.0972507 2.49515e-06 0)
(0.0971241 2.45113e-06 0)
(0.0969994 2.42594e-06 0)
(0.0968763 2.38627e-06 0)
(0.0967553 2.35745e-06 0)
(0.0966358 2.32671e-06 0)
(0.0965183 2.29073e-06 0)
(0.0964021 2.26919e-06 0)
(0.0962879 2.22778e-06 0)
(0.096175 2.21006e-06 0)
(0.096064 2.16928e-06 0)
(0.0959543 2.15173e-06 0)
(0.0958463 2.11029e-06 0)
(0.0957397 2.09567e-06 0)
(0.0956346 2.05631e-06 0)
(0.095531 2.03908e-06 0)
(0.0954288 2.00358e-06 0)
(0.0953279 1.98471e-06 0)
(0.0952285 1.95364e-06 0)
(0.0951303 1.93367e-06 0)
(0.0950335 1.90366e-06 0)
(0.0949379 1.88476e-06 0)
(0.0948437 1.85314e-06 0)
(0.0947506 1.8355e-06 0)
(0.0946589 1.80737e-06 0)
(0.0945683 1.78867e-06 0)
(0.0944789 1.76177e-06 0)
(0.0943907 1.74111e-06 0)
(0.0943035 1.71996e-06 0)
(0.0942177 1.69513e-06 0)
(0.0941327 1.67966e-06 0)
(0.094049 1.65366e-06 0)
(0.0939662 1.63722e-06 0)
(0.0938846 1.60947e-06 0)
(0.0938038 1.59865e-06 0)
(0.0937243 1.57214e-06 0)
(0.0936456 1.55747e-06 0)
(0.093568 1.53095e-06 0)
(0.0934913 1.52213e-06 0)
(0.0934156 1.49735e-06 0)
(0.0933407 1.48229e-06 0)
(0.0932669 1.461e-06 0)
(0.0931939 1.4494e-06 0)
(0.0931219 1.42679e-06 0)
(0.0930506 1.41074e-06 0)
(0.0929803 1.39366e-06 0)
(0.0929108 1.38213e-06 0)
(0.0928421 1.35877e-06 0)
(0.0927743 1.34495e-06 0)
(0.0927073 1.32891e-06 0)
(0.0926411 1.31515e-06 0)
(0.0925756 1.29274e-06 0)
(0.092511 1.28103e-06 0)
(0.0924471 1.26849e-06 0)
(0.092384 1.2502e-06 0)
(0.0923216 1.23182e-06 0)
(0.0922599 1.22069e-06 0)
(0.0921989 1.21178e-06 0)
(0.0921387 1.18731e-06 0)
(0.0920791 1.1726e-06 0)
(0.0920202 1.16449e-06 0)
(0.091962 1.15691e-06 0)
(0.0919045 1.13134e-06 0)
(0.0918476 1.1179e-06 0)
(0.0917913 1.11061e-06 0)
(0.0917357 1.10184e-06 0)
(0.0916807 1.07831e-06 0)
(0.0916264 1.06504e-06 0)
(0.0915726 1.0606e-06 0)
(0.0915195 1.04784e-06 0)
(0.0914668 1.03373e-06 0)
(0.091415 1.01618e-06 0)
(0.0913633 1.01938e-06 0)
(0.0913127 9.96057e-07 0)
(0.0912619 9.92939e-07 0)
(0.0912126 9.63806e-07 0)
(0.0911626 9.8863e-07 0)
(0.0911147 9.44852e-07 0)
(0.0910652 9.74819e-07 0)
(0.0910187 9.07916e-07 0)
(0.0909692 9.8456e-07 0)
(0.0909244 8.79664e-07 0)
(0.0908745 9.92892e-07 0)
(0.0908318 8.25912e-07 0)
(0.0907808 1.03296e-06 0)
(0.0907408 7.74458e-07 0)
(0.0906874 1.09599e-06 0)
(0.090651 6.83214e-07 0)
(0.0905938 1.20224e-06 0)
(0.090562 5.66346e-07 0)
(0.0905 1.37546e-06 0)
(0.0904718 3.83939e-07 0)
(0.0904062 1.59911e-06 0)
(0.0903792 1.86329e-07 0)
(0.0903105 1.86905e-06 0)
(0.0902878 -1.78431e-07 0)
(0.0902024 2.39392e-06 0)
(0.0902229 -2.01563e-06 0)
(0.0900275 1.04853e-05 0)
(0.971307 0.0731486 0)
(0.83259 0.0463966 0)
(0.671414 0.0180086 0)
(0.56224 0.00770754 0)
(0.499335 0.00400558 0)
(0.458865 0.00249249 0)
(0.43057 0.00167205 0)
(0.409984 0.0012181 0)
(0.393933 0.000938762 0)
(0.38119 0.000775572 0)
(0.370331 0.000648993 0)
(0.361505 0.000548678 0)
(0.353684 0.000483703 0)
(0.347065 0.000411123 0)
(0.341267 0.000358643 0)
(0.336207 0.00032188 0)
(0.331584 0.000292948 0)
(0.327468 0.000268929 0)
(0.323659 0.000248885 0)
(0.32022 0.000228307 0)
(0.317024 0.000214054 0)
(0.314076 0.000200655 0)
(0.311327 0.00018903 0)
(0.308755 0.000177149 0)
(0.306374 0.000166448 0)
(0.304119 0.000159386 0)
(0.301995 0.000151117 0)
(0.299984 0.000144965 0)
(0.298075 0.000137894 0)
(0.296268 0.000132314 0)
(0.294547 0.000126393 0)
(0.292903 0.000122153 0)
(0.291329 0.000117134 0)
(0.289831 0.000112767 0)
(0.288389 0.000109087 0)
(0.287005 0.000105247 0)
(0.285677 0.000101076 0)
(0.284405 9.82112e-05 0)
(0.283169 9.49324e-05 0)
(0.281989 9.18823e-05 0)
(0.28084 8.9505e-05 0)
(0.279736 8.646e-05 0)
(0.278664 8.43154e-05 0)
(0.27763 8.14154e-05 0)
(0.276628 7.94188e-05 0)
(0.275658 7.72036e-05 0)
(0.274713 7.54164e-05 0)
(0.273799 7.31098e-05 0)
(0.272909 7.15914e-05 0)
(0.272045 6.94265e-05 0)
(0.271206 6.78407e-05 0)
(0.27039 6.61361e-05 0)
(0.269593 6.47146e-05 0)
(0.268818 6.30122e-05 0)
(0.268064 6.15893e-05 0)
(0.267329 6.00883e-05 0)
(0.266612 5.87308e-05 0)
(0.265913 5.7531e-05 0)
(0.26523 5.61411e-05 0)
(0.264564 5.49928e-05 0)
(0.263912 5.37339e-05 0)
(0.263277 5.26565e-05 0)
(0.262655 5.15222e-05 0)
(0.262049 5.04161e-05 0)
(0.261453 4.9525e-05 0)
(0.260872 4.84116e-05 0)
(0.260303 4.75267e-05 0)
(0.259746 4.64621e-05 0)
(0.259201 4.56459e-05 0)
(0.258668 4.46855e-05 0)
(0.258145 4.38705e-05 0)
(0.257633 4.30273e-05 0)
(0.25713 4.22809e-05 0)
(0.256638 4.14402e-05 0)
(0.256155 4.07051e-05 0)
(0.255682 3.99349e-05 0)
(0.255217 3.92194e-05 0)
(0.254762 3.85041e-05 0)
(0.254315 3.77884e-05 0)
(0.253877 3.71886e-05 0)
(0.253446 3.6496e-05 0)
(0.253023 3.59071e-05 0)
(0.252608 3.52442e-05 0)
(0.2522 3.46867e-05 0)
(0.251799 3.4061e-05 0)
(0.251406 3.35087e-05 0)
(0.251019 3.29448e-05 0)
(0.25064 3.23863e-05 0)
(0.250266 3.18935e-05 0)
(0.249899 3.1349e-05 0)
(0.249538 3.08712e-05 0)
(0.249182 3.03509e-05 0)
(0.248833 2.98902e-05 0)
(0.24849 2.94028e-05 0)
(0.248152 2.89426e-05 0)
(0.247819 2.84957e-05 0)
(0.247492 2.80356e-05 0)
(0.24717 2.7644e-05 0)
(0.246853 2.7194e-05 0)
(0.246541 2.6812e-05 0)
(0.246234 2.63769e-05 0)
(0.245932 2.60128e-05 0)
(0.245634 2.55924e-05 0)
(0.245341 2.52414e-05 0)
(0.245052 2.48468e-05 0)
(0.244768 2.44962e-05 0)
(0.244487 2.41421e-05 0)
(0.244212 2.37787e-05 0)
(0.243939 2.34686e-05 0)
(0.243672 2.31029e-05 0)
(0.243407 2.28086e-05 0)
(0.243147 2.24534e-05 0)
(0.24289 2.21711e-05 0)
(0.242638 2.18231e-05 0)
(0.242388 2.15588e-05 0)
(0.242143 2.12246e-05 0)
(0.2419 2.096e-05 0)
(0.241661 2.06487e-05 0)
(0.241426 2.03862e-05 0)
(0.241194 2.00975e-05 0)
(0.240964 1.98433e-05 0)
(0.240738 1.95617e-05 0)
(0.240515 1.93174e-05 0)
(0.240295 1.90376e-05 0)
(0.240078 1.88044e-05 0)
(0.239864 1.85404e-05 0)
(0.239653 1.83114e-05 0)
(0.239445 1.80588e-05 0)
(0.239239 1.78295e-05 0)
(0.239036 1.76006e-05 0)
(0.238836 1.73643e-05 0)
(0.238638 1.71596e-05 0)
(0.238443 1.69271e-05 0)
(0.238251 1.67243e-05 0)
(0.238061 1.64909e-05 0)
(0.237873 1.63083e-05 0)
(0.237688 1.60842e-05 0)
(0.237505 1.58981e-05 0)
(0.237324 1.56771e-05 0)
(0.237146 1.55096e-05 0)
(0.23697 1.53e-05 0)
(0.236796 1.51212e-05 0)
(0.236624 1.49258e-05 0)
(0.236454 1.47577e-05 0)
(0.236287 1.4566e-05 0)
(0.236121 1.43939e-05 0)
(0.235958 1.42187e-05 0)
(0.235796 1.40605e-05 0)
(0.235637 1.38717e-05 0)
(0.235479 1.37139e-05 0)
(0.235324 1.35491e-05 0)
(0.23517 1.33943e-05 0)
(0.235018 1.32138e-05 0)
(0.234868 1.30685e-05 0)
(0.234719 1.29221e-05 0)
(0.234573 1.27624e-05 0)
(0.234428 1.2602e-05 0)
(0.234285 1.24629e-05 0)
(0.234143 1.23353e-05 0)
(0.234003 1.21673e-05 0)
(0.233865 1.20246e-05 0)
(0.233728 1.18992e-05 0)
(0.233593 1.17811e-05 0)
(0.23346 1.16154e-05 0)
(0.233328 1.14832e-05 0)
(0.233197 1.13647e-05 0)
(0.233068 1.12512e-05 0)
(0.23294 1.10961e-05 0)
(0.232814 1.09708e-05 0)
(0.232689 1.08632e-05 0)
(0.232566 1.07466e-05 0)
(0.232444 1.06196e-05 0)
(0.232324 1.0496e-05 0)
(0.232204 1.04119e-05 0)
(0.232086 1.0283e-05 0)
(0.231968 1.01826e-05 0)
(0.231854 1.00469e-05 0)
(0.231738 1.00104e-05 0)
(0.231627 9.85323e-06 0)
(0.231512 9.83171e-06 0)
(0.231404 9.63728e-06 0)
(0.231289 9.72337e-06 0)
(0.231186 9.45605e-06 0)
(0.23107 9.62428e-06 0)
(0.230971 9.23205e-06 0)
(0.230853 9.61946e-06 0)
(0.23076 9.0395e-06 0)
(0.230637 9.70801e-06 0)
(0.230552 8.77538e-06 0)
(0.230422 9.95657e-06 0)
(0.230347 8.43051e-06 0)
(0.230206 1.05319e-05 0)
(0.230139 7.91338e-06 0)
(0.229991 1.1308e-05 0)
(0.229926 7.5108e-06 0)
(0.229773 1.20994e-05 0)
(0.229712 7.29205e-06 0)
(0.22953 1.3253e-05 0)
(0.229528 4.39058e-06 0)
(0.229196 3.8599e-05 0)
(1.00819 0.0653169 0)
(0.99085 0.0518135 0)
(0.927091 0.0301992 0)
(0.830991 0.0178218 0)
(0.755585 0.0112163 0)
(0.697512 0.00756631 0)
(0.652393 0.00535878 0)
(0.617043 0.00401835 0)
(0.588721 0.00314378 0)
(0.565656 0.00257505 0)
(0.546407 0.00214648 0)
(0.530285 0.00181204 0)
(0.516446 0.00157298 0)
(0.504535 0.00135287 0)
(0.494117 0.00118346 0)
(0.484969 0.00105623 0)
(0.476738 0.000952411 0)
(0.469416 0.000864925 0)
(0.46274 0.000792137 0)
(0.456709 0.000724089 0)
(0.451167 0.000671157 0)
(0.446088 0.000622998 0)
(0.44139 0.000581752 0)
(0.437029 0.00054197 0)
(0.433001 0.000506704 0)
(0.429221 0.000479719 0)
(0.425684 0.000452264 0)
(0.422358 0.000429709 0)
(0.419224 0.000406652 0)
(0.416273 0.000387198 0)
(0.413475 0.000368466 0)
(0.410822 0.000352961 0)
(0.408298 0.0003369 0)
(0.405903 0.000322564 0)
(0.403614 0.000310013 0)
(0.401431 0.000297757 0)
(0.399339 0.000285329 0)
(0.397344 0.000275478 0)
(0.395419 0.000265244 0)
(0.393585 0.000255719 0)
(0.39181 0.000247744 0)
(0.390108 0.000238878 0)
(0.388464 0.000231695 0)
(0.386883 0.000223518 0)
(0.385355 0.000216966 0)
(0.383882 0.0002104 0)
(0.382452 0.000204609 0)
(0.381073 0.000198156 0)
(0.379735 0.000193115 0)
(0.378439 0.000187163 0)
(0.377184 0.000182237 0)
(0.375966 0.000177324 0)
(0.374782 0.00017296 0)
(0.373632 0.000168192 0)
(0.372515 0.000163999 0)
(0.371428 0.000159762 0)
(0.370372 0.000155818 0)
(0.369344 0.00015225 0)
(0.368341 0.000148432 0)
(0.367366 0.000145077 0)
(0.366414 0.000141589 0)
(0.365487 0.000138473 0)
(0.36458 0.000135307 0)
(0.363699 0.000132242 0)
(0.362835 0.000129589 0)
(0.361994 0.000126625 0)
(0.36117 0.000124064 0)
(0.360366 0.000121251 0)
(0.35958 0.000118875 0)
(0.358811 0.000116315 0)
(0.358059 0.000114009 0)
(0.357324 0.000111712 0)
(0.356604 0.000109614 0)
(0.355898 0.000107378 0)
(0.355208 0.000105341 0)
(0.354532 0.000103275 0)
(0.353869 0.000101322 0)
(0.35322 9.93933e-05 0)
(0.352584 9.7485e-05 0)
(0.35196 9.5795e-05 0)
(0.351348 9.39873e-05 0)
(0.350748 9.23612e-05 0)
(0.350159 9.06306e-05 0)
(0.349582 8.90932e-05 0)
(0.349015 8.74597e-05 0)
(0.348459 8.59628e-05 0)
(0.347912 8.44672e-05 0)
(0.347376 8.29912e-05 0)
(0.346849 8.1647e-05 0)
(0.346332 8.02332e-05 0)
(0.345823 7.89406e-05 0)
(0.345323 7.75898e-05 0)
(0.344833 7.63524e-05 0)
(0.34435 7.50802e-05 0)
(0.343876 7.3866e-05 0)
(0.343409 7.26845e-05 0)
(0.342951 7.14931e-05 0)
(0.342499 7.04242e-05 0)
(0.342056 6.92791e-05 0)
(0.341619 6.825e-05 0)
(0.34119 6.71433e-05 0)
(0.340767 6.61607e-05 0)
(0.340351 6.50936e-05 0)
(0.339942 6.41525e-05 0)
(0.339539 6.31447e-05 0)
(0.339142 6.22208e-05 0)
(0.338751 6.12961e-05 0)
(0.338367 6.03661e-05 0)
(0.337988 5.95312e-05 0)
(0.337616 5.86173e-05 0)
(0.337248 5.78179e-05 0)
(0.336886 5.69332e-05 0)
(0.336529 5.61685e-05 0)
(0.336178 5.53081e-05 0)
(0.335832 5.4585e-05 0)
(0.335491 5.37584e-05 0)
(0.335155 5.30462e-05 0)
(0.334824 5.22703e-05 0)
(0.334497 5.15719e-05 0)
(0.334175 5.08445e-05 0)
(0.333857 5.01751e-05 0)
(0.333544 4.94662e-05 0)
(0.333236 4.8822e-05 0)
(0.332931 4.81259e-05 0)
(0.332631 4.75098e-05 0)
(0.332335 4.68467e-05 0)
(0.332043 4.62472e-05 0)
(0.331755 4.56121e-05 0)
(0.331471 4.50201e-05 0)
(0.331191 4.44319e-05 0)
(0.330914 4.38375e-05 0)
(0.330641 4.3296e-05 0)
(0.330372 4.27169e-05 0)
(0.330106 4.21868e-05 0)
(0.329844 4.16139e-05 0)
(0.329585 4.11203e-05 0)
(0.329329 4.05681e-05 0)
(0.329077 4.00795e-05 0)
(0.328828 3.95388e-05 0)
(0.328582 3.90828e-05 0)
(0.32834 3.85671e-05 0)
(0.3281 3.81021e-05 0)
(0.327864 3.76148e-05 0)
(0.32763 3.71702e-05 0)
(0.3274 3.66982e-05 0)
(0.327172 3.62562e-05 0)
(0.326947 3.58109e-05 0)
(0.326725 3.5396e-05 0)
(0.326505 3.49384e-05 0)
(0.326288 3.45295e-05 0)
(0.326074 3.41099e-05 0)
(0.325863 3.37135e-05 0)
(0.325654 3.32782e-05 0)
(0.325448 3.28982e-05 0)
(0.325244 3.25178e-05 0)
(0.325042 3.21247e-05 0)
(0.324843 3.1731e-05 0)
(0.324647 3.13683e-05 0)
(0.324452 3.10282e-05 0)
(0.32426 3.06345e-05 0)
(0.32407 3.02777e-05 0)
(0.323882 2.99443e-05 0)
(0.323697 2.96275e-05 0)
(0.323514 2.92445e-05 0)
(0.323332 2.89135e-05 0)
(0.323153 2.85983e-05 0)
(0.322976 2.83e-05 0)
(0.322801 2.79392e-05 0)
(0.322628 2.76277e-05 0)
(0.322456 2.73341e-05 0)
(0.322287 2.70434e-05 0)
(0.322119 2.67263e-05 0)
(0.321954 2.64337e-05 0)
(0.32179 2.61784e-05 0)
(0.321629 2.58939e-05 0)
(0.321467 2.56103e-05 0)
(0.32131 2.53256e-05 0)
(0.321151 2.51264e-05 0)
(0.320998 2.48385e-05 0)
(0.320841 2.46552e-05 0)
(0.320693 2.43433e-05 0)
(0.320536 2.4297e-05 0)
(0.320393 2.39222e-05 0)
(0.320236 2.39681e-05 0)
(0.3201 2.34658e-05 0)
(0.319939 2.37896e-05 0)
(0.319811 2.30924e-05 0)
(0.319645 2.37855e-05 0)
(0.319526 2.2656e-05 0)
(0.319351 2.40675e-05 0)
(0.319244 2.21048e-05 0)
(0.319058 2.4956e-05 0)
(0.318962 2.13063e-05 0)
(0.318766 2.63275e-05 0)
(0.318673 2.07948e-05 0)
(0.31847 2.76653e-05 0)
(0.318381 2.12592e-05 0)
(0.318147 2.94091e-05 0)
(0.318111 1.82002e-05 0)
(0.317738 6.88313e-05 0)
(1.0114 0.0502384 0)
(1.03997 0.0487469 0)
(1.02553 0.0348171 0)
(0.984217 0.0254165 0)
(0.930309 0.0186101 0)
(0.877831 0.0138907 0)
(0.829976 0.0105619 0)
(0.78781 0.00828111 0)
(0.751549 0.00664213 0)
(0.720519 0.00547675 0)
(0.694087 0.00458191 0)
(0.671333 0.00388235 0)
(0.651689 0.00335562 0)
(0.634547 0.00290218 0)
(0.619469 0.00254302 0)
(0.606135 0.00226149 0)
(0.594215 0.00202804 0)
(0.583576 0.0018317 0)
(0.573937 0.00166766 0)
(0.565219 0.00151976 0)
(0.55725 0.00139944 0)
(0.549967 0.00129186 0)
(0.543259 0.00119972 0)
(0.537057 0.00111352 0)
(0.531331 0.00103766 0)
(0.525985 0.000976271 0)
(0.521002 0.000916725 0)
(0.516335 0.000866258 0)
(0.511952 0.000816755 0)
(0.507842 0.00077421 0)
(0.503955 0.000734555 0)
(0.500284 0.000700083 0)
(0.496805 0.000666052 0)
(0.493512 0.000635471 0)
(0.490377 0.000608212 0)
(0.487398 0.000582453 0)
(0.484548 0.000557094 0)
(0.481838 0.000535716 0)
(0.479234 0.000514419 0)
(0.476755 0.000494623 0)
(0.474367 0.000477578 0)
(0.472081 0.000459651 0)
(0.46988 0.000444389 0)
(0.467767 0.000428179 0)
(0.46573 0.000414433 0)
(0.46377 0.000401052 0)
(0.461874 0.000388938 0)
(0.460048 0.0003762 0)
(0.45828 0.000365585 0)
(0.456572 0.000353957 0)
(0.45492 0.000343892 0)
(0.45332 0.000334097 0)
(0.451768 0.000325176 0)
(0.450264 0.00031584 0)
(0.448806 0.000307458 0)
(0.447388 0.000299142 0)
(0.446013 0.000291304 0)
(0.444676 0.000284145 0)
(0.443376 0.000276753 0)
(0.442111 0.000270091 0)
(0.440879 0.000263327 0)
(0.439682 0.000257165 0)
(0.438512 0.000251019 0)
(0.437376 0.000245077 0)
(0.436265 0.00023978 0)
(0.435183 0.000234146 0)
(0.434126 0.000229112 0)
(0.433095 0.000223795 0)
(0.432088 0.000219119 0)
(0.431105 0.000214263 0)
(0.430144 0.000209785 0)
(0.429205 0.000205387 0)
(0.428287 0.000201319 0)
(0.427388 0.000197094 0)
(0.42651 0.000193181 0)
(0.42565 0.000189268 0)
(0.424809 0.000185543 0)
(0.423984 0.000181889 0)
(0.423178 0.000178288 0)
(0.422387 0.000175025 0)
(0.421613 0.000171649 0)
(0.420854 0.000168541 0)
(0.42011 0.000165314 0)
(0.419381 0.000162379 0)
(0.418665 0.000159338 0)
(0.417964 0.000156505 0)
(0.417275 0.000153703 0)
(0.4166 0.000150942 0)
(0.415937 0.000148393 0)
(0.415286 0.000145771 0)
(0.414647 0.000143332 0)
(0.41402 0.00014083 0)
(0.413404 0.000138503 0)
(0.412798 0.000136144 0)
(0.412203 0.000133881 0)
(0.411619 0.00013168 0)
(0.411045 0.000129479 0)
(0.41048 0.000127459 0)
(0.409925 0.000125362 0)
(0.409379 0.000123431 0)
(0.408843 0.000121407 0)
(0.408315 0.000119563 0)
(0.407796 0.000117616 0)
(0.407285 0.000115855 0)
(0.406782 0.000114013 0)
(0.406288 0.000112298 0)
(0.405801 0.000110591 0)
(0.405323 0.000108889 0)
(0.404851 0.000107327 0)
(0.404387 0.000105673 0)
(0.40393 0.000104175 0)
(0.40348 0.000102577 0)
(0.403036 0.000101146 0)
(0.4026 9.95989e-05 0)
(0.40217 9.8241e-05 0)
(0.401746 9.67556e-05 0)
(0.401329 9.54279e-05 0)
(0.400918 9.40284e-05 0)
(0.400513 9.2734e-05 0)
(0.400114 9.14159e-05 0)
(0.39972 9.01797e-05 0)
(0.399332 8.88971e-05 0)
(0.39895 8.77086e-05 0)
(0.398573 8.64568e-05 0)
(0.398201 8.53188e-05 0)
(0.397835 8.41226e-05 0)
(0.397474 8.302e-05 0)
(0.397117 8.18738e-05 0)
(0.396766 8.0792e-05 0)
(0.396419 7.97206e-05 0)
(0.396077 7.86474e-05 0)
(0.39574 7.76486e-05 0)
(0.395407 7.66083e-05 0)
(0.395079 7.5636e-05 0)
(0.394755 7.46134e-05 0)
(0.394435 7.36969e-05 0)
(0.39412 7.27111e-05 0)
(0.393809 7.18133e-05 0)
(0.393502 7.0851e-05 0)
(0.393198 7.00029e-05 0)
(0.392899 6.90838e-05 0)
(0.392604 6.82332e-05 0)
(0.392312 6.73593e-05 0)
(0.392024 6.65434e-05 0)
(0.39174 6.57004e-05 0)
(0.391459 6.48968e-05 0)
(0.391182 6.40926e-05 0)
(0.390909 6.33343e-05 0)
(0.390638 6.25241e-05 0)
(0.390371 6.17784e-05 0)
(0.390108 6.10213e-05 0)
(0.389847 6.03033e-05 0)
(0.38959 5.95348e-05 0)
(0.389336 5.88398e-05 0)
(0.389085 5.81484e-05 0)
(0.388838 5.74479e-05 0)
(0.388593 5.6747e-05 0)
(0.388351 5.60865e-05 0)
(0.388112 5.54624e-05 0)
(0.387875 5.47749e-05 0)
(0.387642 5.41337e-05 0)
(0.387411 5.35241e-05 0)
(0.387183 5.29428e-05 0)
(0.386958 5.22786e-05 0)
(0.386735 5.16832e-05 0)
(0.386515 5.11078e-05 0)
(0.386297 5.05641e-05 0)
(0.386082 4.99365e-05 0)
(0.385869 4.93797e-05 0)
(0.385659 4.88396e-05 0)
(0.385451 4.83212e-05 0)
(0.385245 4.77526e-05 0)
(0.385042 4.72403e-05 0)
(0.38484 4.6752e-05 0)
(0.384643 4.627e-05 0)
(0.384444 4.57387e-05 0)
(0.384251 4.52703e-05 0)
(0.384056 4.48386e-05 0)
(0.383869 4.43979e-05 0)
(0.383675 4.39713e-05 0)
(0.383494 4.35363e-05 0)
(0.383302 4.32628e-05 0)
(0.383126 4.28028e-05 0)
(0.382934 4.26082e-05 0)
(0.382766 4.20531e-05 0)
(0.38257 4.21613e-05 0)
(0.382412 4.14516e-05 0)
(0.382211 4.19719e-05 0)
(0.382063 4.08145e-05 0)
(0.381853 4.22045e-05 0)
(0.381718 4.00643e-05 0)
(0.381497 4.328e-05 0)
(0.381374 3.90573e-05 0)
(0.381141 4.5201e-05 0)
(0.381024 3.84702e-05 0)
(0.380782 4.71682e-05 0)
(0.380669 3.98129e-05 0)
(0.380396 4.93737e-05 0)
(0.38033 3.73709e-05 0)
(0.379929 9.95959e-05 0)
(1.00996 0.0450826 0)
(1.05306 0.04855 0)
(1.05269 0.0361574 0)
(1.04254 0.0289499 0)
(1.01961 0.0233614 0)
(0.98862 0.019072 0)
(0.954424 0.0156865 0)
(0.918985 0.0130655 0)
(0.884526 0.010946 0)
(0.851963 0.00927066 0)
(0.822293 0.00788801 0)
(0.795473 0.00676198 0)
(0.771514 0.00586903 0)
(0.750121 0.00511035 0)
(0.731013 0.00449675 0)
(0.713884 0.00400106 0)
(0.698513 0.00358218 0)
(0.684695 0.00322963 0)
(0.672159 0.00293367 0)
(0.660773 0.00266944 0)
(0.650388 0.00244961 0)
(0.640877 0.00225517 0)
(0.632128 0.00208744 0)
(0.624046 0.0019334 0)
(0.616581 0.00179794 0)
(0.609627 0.00168468 0)
(0.60316 0.00157741 0)
(0.597113 0.00148519 0)
(0.591449 0.00139661 0)
(0.586144 0.00131992 0)
(0.581139 0.00124936 0)
(0.576423 0.00118653 0)
(0.571965 0.00112616 0)
(0.567751 0.00107174 0)
(0.56375 0.00102269 0)
(0.559955 0.000977181 0)
(0.556332 0.000933199 0)
(0.552891 0.000894835 0)
(0.549595 0.000857475 0)
(0.54646 0.000822811 0)
(0.543448 0.000792474 0)
(0.54057 0.000761495 0)
(0.537805 0.000734505 0)
(0.535152 0.000706935 0)
(0.532601 0.000682792 0)
(0.530149 0.000659572 0)
(0.527784 0.000638347 0)
(0.525507 0.000616721 0)
(0.523309 0.00059806 0)
(0.521187 0.000578461 0)
(0.519138 0.000561107 0)
(0.517156 0.000544393 0)
(0.515237 0.000528971 0)
(0.513379 0.000513265 0)
(0.51158 0.000498983 0)
(0.509834 0.000484966 0)
(0.508142 0.000471669 0)
(0.5065 0.000459455 0)
(0.504904 0.000447112 0)
(0.503354 0.000435829 0)
(0.501845 0.000424531 0)
(0.50038 0.000414122 0)
(0.498952 0.000403859 0)
(0.497564 0.000393941 0)
(0.49621 0.000384954 0)
(0.494892 0.000375666 0)
(0.493606 0.000367213 0)
(0.492353 0.000358488 0)
(0.491131 0.000350639 0)
(0.489937 0.000342654 0)
(0.488773 0.0003352 0)
(0.487636 0.000327932 0)
(0.486524 0.00032116 0)
(0.485438 0.00031424 0)
(0.484377 0.000307774 0)
(0.483338 0.000301359 0)
(0.482323 0.00029523 0)
(0.48133 0.000289251 0)
(0.480358 0.000283368 0)
(0.479407 0.000277965 0)
(0.478475 0.000272484 0)
(0.477563 0.000267371 0)
(0.476669 0.000262142 0)
(0.475793 0.00025732 0)
(0.474935 0.000252399 0)
(0.474094 0.000247772 0)
(0.473269 0.000243224 0)
(0.47246 0.000238749 0)
(0.471666 0.000234581 0)
(0.470888 0.000230352 0)
(0.470124 0.000226379 0)
(0.469374 0.000222351 0)
(0.468638 0.000218571 0)
(0.467915 0.00021477 0)
(0.467206 0.000211115 0)
(0.466508 0.000207563 0)
(0.465824 0.000204026 0)
(0.465151 0.00020074 0)
(0.464491 0.000197389 0)
(0.463841 0.000194261 0)
(0.463202 0.000191032 0)
(0.462574 0.000188047 0)
(0.461957 0.000184948 0)
(0.46135 0.000182102 0)
(0.460753 0.000179167 0)
(0.460166 0.00017641 0)
(0.459588 0.000173677 0)
(0.45902 0.000170963 0)
(0.458461 0.000168442 0)
(0.457911 0.000165822 0)
(0.457369 0.000163405 0)
(0.456836 0.00016088 0)
(0.45631 0.000158572 0)
(0.455794 0.000156134 0)
(0.455284 0.000153941 0)
(0.454783 0.000151603 0)
(0.45429 0.000149468 0)
(0.453803 0.00014726 0)
(0.453324 0.000145187 0)
(0.452852 0.000143102 0)
(0.452387 0.000141125 0)
(0.451929 0.000139099 0)
(0.451477 0.000137202 0)
(0.451032 0.000135233 0)
(0.450594 0.000133415 0)
(0.450161 0.000131531 0)
(0.449735 0.000129774 0)
(0.449315 0.000127968 0)
(0.4489 0.000126251 0)
(0.448491 0.000124555 0)
(0.448089 0.000122864 0)
(0.447691 0.000121271 0)
(0.447299 0.000119637 0)
(0.446912 0.000118092 0)
(0.446531 0.000116493 0)
(0.446154 0.000115026 0)
(0.445783 0.000113485 0)
(0.445417 0.000112058 0)
(0.445055 0.000110556 0)
(0.444698 0.000109199 0)
(0.444346 0.000107764 0)
(0.443999 0.000106416 0)
(0.443656 0.000105046 0)
(0.443317 0.000103752 0)
(0.442983 0.000102434 0)
(0.442653 0.000101165 0)
(0.442328 9.99005e-05 0)
(0.442006 9.87e-05 0)
(0.441689 9.74413e-05 0)
(0.441375 9.62623e-05 0)
(0.441066 9.50729e-05 0)
(0.44076 9.39423e-05 0)
(0.440458 9.27514e-05 0)
(0.44016 9.1651e-05 0)
(0.439865 9.05604e-05 0)
(0.439574 8.94683e-05 0)
(0.439287 8.83766e-05 0)
(0.439003 8.7334e-05 0)
(0.438722 8.63446e-05 0)
(0.438445 8.52857e-05 0)
(0.438171 8.42808e-05 0)
(0.437901 8.33165e-05 0)
(0.437633 8.23962e-05 0)
(0.437369 8.13784e-05 0)
(0.437108 8.04449e-05 0)
(0.43685 7.95359e-05 0)
(0.436595 7.86784e-05 0)
(0.436342 7.77158e-05 0)
(0.436093 7.68462e-05 0)
(0.435846 7.59905e-05 0)
(0.435603 7.51828e-05 0)
(0.435362 7.42956e-05 0)
(0.435124 7.35036e-05 0)
(0.434887 7.27143e-05 0)
(0.434656 7.19835e-05 0)
(0.434423 7.11373e-05 0)
(0.434197 7.04381e-05 0)
(0.433969 6.97032e-05 0)
(0.433749 6.90729e-05 0)
(0.433523 6.83262e-05 0)
(0.43331 6.77407e-05 0)
(0.433086 6.71553e-05 0)
(0.43288 6.66035e-05 0)
(0.432656 6.6073e-05 0)
(0.432458 6.5478e-05 0)
(0.432232 6.52575e-05 0)
(0.432044 6.45757e-05 0)
(0.431813 6.47892e-05 0)
(0.431637 6.36796e-05 0)
(0.431397 6.48888e-05 0)
(0.431234 6.27053e-05 0)
(0.430983 6.60487e-05 0)
(0.430833 6.15134e-05 0)
(0.430569 6.84012e-05 0)
(0.43043 6.08942e-05 0)
(0.430152 7.11433e-05 0)
(0.430018 6.31408e-05 0)
(0.429712 7.37985e-05 0)
(0.42962 6.19176e-05 0)
(0.429192 0.00013238 0)
(1.00868 0.0410962 0)
(1.05097 0.0471187 0)
(1.05922 0.0351964 0)
(1.05737 0.029542 0)
(1.05143 0.0253017 0)
(1.03899 0.0217756 0)
(1.02199 0.0190024 0)
(1.00102 0.0167638 0)
(0.977519 0.0147761 0)
(0.952111 0.0130539 0)
(0.926166 0.0114847 0)
(0.900531 0.0101017 0)
(0.875971 0.00891869 0)
(0.85291 0.00786998 0)
(0.831578 0.00698796 0)
(0.811909 0.00624962 0)
(0.79391 0.00561017 0)
(0.777482 0.00506603 0)
(0.762435 0.00460417 0)
(0.748641 0.00419164 0)
(0.736009 0.00384193 0)
(0.724379 0.00353375 0)
(0.713657 0.00326618 0)
(0.703727 0.00302229 0)
(0.694543 0.00280704 0)
(0.685992 0.00262391 0)
(0.678033 0.00245269 0)
(0.670594 0.00230388 0)
(0.663632 0.0021628 0)
(0.65711 0.00203998 0)
(0.650966 0.00192748 0)
(0.645182 0.00182618 0)
(0.63972 0.00173034 0)
(0.634562 0.00164369 0)
(0.629671 0.00156506 0)
(0.625037 0.00149289 0)
(0.62062 0.00142392 0)
(0.616427 0.00136253 0)
(0.61242 0.00130357 0)
(0.60861 0.00124893 0)
(0.604956 0.00120055 0)
(0.601468 0.00115204 0)
(0.598123 0.00110926 0)
(0.594918 0.00106656 0)
(0.591838 0.00102846 0)
(0.588882 0.000992028 0)
(0.586036 0.000958576 0)
(0.583298 0.000925151 0)
(0.580659 0.000895683 0)
(0.578114 0.00086555 0)
(0.575659 0.000838523 0)
(0.573287 0.000812599 0)
(0.570994 0.000788525 0)
(0.568776 0.000764454 0)
(0.566629 0.00074235 0)
(0.56455 0.000720828 0)
(0.562535 0.000700345 0)
(0.560582 0.000681453 0)
(0.558686 0.000662636 0)
(0.556847 0.000645277 0)
(0.555058 0.000628053 0)
(0.553322 0.000612068 0)
(0.551632 0.000596431 0)
(0.549991 0.000581324 0)
(0.548391 0.000567499 0)
(0.546835 0.000553469 0)
(0.545319 0.000540552 0)
(0.543842 0.000527425 0)
(0.542402 0.000515449 0)
(0.540998 0.000503421 0)
(0.539628 0.000492111 0)
(0.538292 0.000481131 0)
(0.536987 0.00047085 0)
(0.535712 0.000460461 0)
(0.534468 0.000450702 0)
(0.533251 0.000441072 0)
(0.532062 0.000431851 0)
(0.530899 0.000422889 0)
(0.529763 0.000414082 0)
(0.528651 0.000405927 0)
(0.527563 0.000397755 0)
(0.526497 0.000390069 0)
(0.525454 0.000382288 0)
(0.524433 0.000375049 0)
(0.523432 0.000367738 0)
(0.522452 0.000360824 0)
(0.521492 0.000354052 0)
(0.52055 0.0003474 0)
(0.519627 0.000341166 0)
(0.518722 0.000334899 0)
(0.517834 0.000328975 0)
(0.516963 0.000323016 0)
(0.516109 0.00031739 0)
(0.51527 0.000311769 0)
(0.514447 0.000306352 0)
(0.513638 0.000301093 0)
(0.512845 0.00029587 0)
(0.512066 0.00029098 0)
(0.5113 0.00028605 0)
(0.510548 0.000281409 0)
(0.509809 0.000276667 0)
(0.509083 0.000272242 0)
(0.508369 0.0002677 0)
(0.507667 0.000263487 0)
(0.506977 0.000259184 0)
(0.506299 0.000255115 0)
(0.505632 0.000251095 0)
(0.504976 0.000247117 0)
(0.504331 0.000243389 0)
(0.503696 0.000239563 0)
(0.503071 0.000235992 0)
(0.502456 0.000232312 0)
(0.501851 0.000228904 0)
(0.501255 0.00022536 0)
(0.500669 0.000222118 0)
(0.500092 0.000218721 0)
(0.499523 0.000215577 0)
(0.498964 0.000212365 0)
(0.498412 0.00020932 0)
(0.497869 0.000206282 0)
(0.497335 0.000203381 0)
(0.496808 0.000200433 0)
(0.496288 0.000197652 0)
(0.495777 0.000194797 0)
(0.495273 0.000192131 0)
(0.494776 0.000189396 0)
(0.494286 0.000186825 0)
(0.493804 0.000184204 0)
(0.493328 0.000181699 0)
(0.492859 0.000179229 0)
(0.492397 0.000176774 0)
(0.49194 0.000174443 0)
(0.491491 0.000172076 0)
(0.491047 0.000169822 0)
(0.49061 0.000167512 0)
(0.490178 0.000165364 0)
(0.489753 0.00016314 0)
(0.489333 0.000161056 0)
(0.488919 0.000158892 0)
(0.48851 0.000156904 0)
(0.488106 0.000154836 0)
(0.487709 0.000152873 0)
(0.487316 0.000150894 0)
(0.486928 0.000149008 0)
(0.486546 0.000147107 0)
(0.486168 0.000145265 0)
(0.485795 0.000143434 0)
(0.485427 0.000141688 0)
(0.485064 0.00013988 0)
(0.484706 0.000138167 0)
(0.484351 0.000136448 0)
(0.484002 0.000134809 0)
(0.483657 0.000133102 0)
(0.483316 0.000131502 0)
(0.482979 0.000129922 0)
(0.482646 0.00012835 0)
(0.482318 0.00012678 0)
(0.481993 0.000125268 0)
(0.481673 0.00012383 0)
(0.481356 0.000122318 0)
(0.481043 0.000120866 0)
(0.480734 0.000119466 0)
(0.480429 0.00011813 0)
(0.480127 0.000116683 0)
(0.479829 0.000115334 0)
(0.479534 0.000114016 0)
(0.479243 0.000112774 0)
(0.478955 0.000111405 0)
(0.478671 0.000110152 0)
(0.478389 0.00010891 0)
(0.478111 0.000107748 0)
(0.477836 0.000106474 0)
(0.477565 0.000105338 0)
(0.477295 0.00010418 0)
(0.47703 0.000103143 0)
(0.476766 0.000101915 0)
(0.476508 0.000100932 0)
(0.476247 9.98276e-05 0)
(0.475996 9.89607e-05 0)
(0.47574 9.7823e-05 0)
(0.475496 9.70456e-05 0)
(0.475241 9.60756e-05 0)
(0.475006 9.54032e-05 0)
(0.474752 9.44595e-05 0)
(0.474525 9.38073e-05 0)
(0.47427 9.31745e-05 0)
(0.474054 9.25176e-05 0)