/*--------------------------------*- C++ -*----------------------------------*\
  =========                 |
  \\      /  F ield         | OpenFOAM: The Open Source CFD Toolbox
   \\    /   O peration     | Website:  https://openfoam.org
    \\  /    A nd           | Version:  12
     \\/     M anipulation  |
\*---------------------------------------------------------------------------*/
FoamFile
{
    format      ascii;
    class       volScalarField;
    location    "100";
    object      epsilon;
}
// * * * * * * * * * * * * * * * * * * * * * * * * * * * * * * * * * * * * * //

dimensions      [0 2 -3 0 0 0 0];

internalField   nonuniform List<scalar> 
20000
(
0.0755118
0.028391
0.0315385
0.0411385
0.0503371
0.053255
0.0605379
0.0641785
0.0713824
0.0738835
0.0787721
0.0804101
0.08343
0.0848797
0.0869031
0.0884022
0.0896092
0.0908129
0.0914566
0.0924338
0.0928972
0.0935269
0.0937807
0.0942055
0.0943758
0.0946052
0.0947334
0.0949242
0.0949823
0.0950732
0.0950964
0.0950444
0.0948081
0.0946165
0.094322
0.0938243
0.0933754
0.0926414
0.092018
0.091362
0.0907291
0.0899748
0.08932
0.0886569
0.0881562
0.0876241
0.0872182
0.0868287
0.0863681
0.0859049
0.0854718
0.0850657
0.084727
0.0843998
0.0841372
0.0838984
0.0837024
0.0835153
0.0833741
0.0832758
0.0832291
0.0831844
0.0831197
0.0830817
0.0830805
0.0830784
0.0831274
0.0831507
0.0831379
0.0831273
0.0830632
0.0829269
0.0827739
0.0824799
0.0821764
0.0820756
0.0820126
0.0818255
0.0814544
0.0811554
0.0805687
0.080291
0.0801124
0.0798893
0.0795264
0.0791217
0.079014
0.0787905
0.0786376
0.0785382
0.0782921
0.0780554
0.0777767
0.0776815
0.0775896
0.0773925
0.0771504
0.0769085
0.0767056
0.0765974
0.0765356
0.0764008
0.0761907
0.0760988
0.0760404
0.0759077
0.075855
0.0757264
0.0755741
0.0754718
0.0754126
0.0752276
0.075102
0.0750168
0.0748828
0.0748592
0.0747632
0.0746656
0.0745162
0.0743817
0.0742753
0.0742281
0.0741167
0.0740946
0.074043
0.0739937
0.0739232
0.0738948
0.0738499
0.0737919
0.0737703
0.0737779
0.0737989
0.0737491
0.0736911
0.0736448
0.0736828
0.0737228
0.0736817
0.0736807
0.0736726
0.073699
0.0736893
0.0735908
0.0736522
0.0736408
0.0736268
0.0736198
0.0736145
0.0736157
0.0736289
0.0736169
0.0735991
0.0735573
0.0735491
0.0735041
0.0734751
0.0734289
0.0734471
0.0734358
0.0734693
0.0734769
0.0735108
0.0735205
0.0734718
0.0734451
0.0734434
0.0733752
0.0733549
0.0734572
0.0734453
0.0734024
0.0734101
0.0734634
0.0734419
0.0734527
0.0734527
0.0734778
0.0734996
0.0733859
0.0734026
0.0734468
0.0734116
0.0734705
0.0735855
0.0735617
0.0734881
0.073513
0.0735238
0.0734776
0.0734234
0.0734239
0.0733632
0.0733453
0.0732727
0.0733008
0.0733468
0.0732499
0.0733099
0.0733438
0.0279461
0.0395149
0.0603241
0.0758032
0.0853146
0.0846077
0.0882537
0.0886206
0.0920732
0.0916902
0.0930082
0.0921791
0.0922723
0.091546
0.0912035
0.0907134
0.0900531
0.0895864
0.0887312
0.088271
0.0874863
0.0869497
0.0861622
0.0856054
0.0848992
0.0843096
0.0836726
0.0831592
0.0825744
0.0820662
0.0815409
0.0810224
0.0803811
0.079795
0.0791883
0.0784533
0.0778032
0.0769706
0.0762312
0.0754885
0.0748008
0.0740462
0.0733667
0.0726952
0.0721538
0.0716093
0.0711659
0.0707623
0.0703175
0.0698728
0.0694464
0.0690341
0.0686682
0.0683079
0.0679976
0.0677007
0.0674495
0.0671964
0.0669882
0.0667995
0.066663
0.0665389
0.066407
0.0662865
0.0662075
0.0661123
0.0660698
0.0660283
0.0659492
0.0658964
0.0657992
0.0656641
0.0655233
0.0652803
0.0650293
0.0648799
0.0647878
0.0646192
0.0643237
0.0640912
0.0636382
0.0633598
0.0631615
0.0629522
0.0626677
0.0623207
0.0621888
0.0619928
0.0618303
0.0617249
0.0615182
0.0613155
0.061077
0.060962
0.0608659
0.0606985
0.0605056
0.0603107
0.0601272
0.0600136
0.0599395
0.0597997
0.0596224
0.0594972
0.0594256
0.0593025
0.0592442
0.0591366
0.0590161
0.0589143
0.0588524
0.0587
0.058583
0.0584958
0.0584069
0.0583943
0.058324
0.0582476
0.0581284
0.0580146
0.0579112
0.0578544
0.0577304
0.0577072
0.0576488
0.0576176
0.0575451
0.0575012
0.0574495
0.0573797
0.0573576
0.0573493
0.0573477
0.0573299
0.0572841
0.0572227
0.057256
0.0572736
0.0572482
0.0572575
0.0572393
0.0572478
0.0572463
0.0571842
0.0572199
0.0572024
0.0571739
0.0571803
0.0571717
0.0571666
0.0571749
0.0571454
0.057142
0.0571071
0.0571136
0.0570654
0.0570399
0.0570074
0.057016
0.0569891
0.0570008
0.0570012
0.0570358
0.0570457
0.0570276
0.0570003
0.0569782
0.0569345
0.0569157
0.0569726
0.0569751
0.056956
0.0569442
0.0569869
0.056986
0.0569623
0.0569672
0.056977
0.0570169
0.0569483
0.0569474
0.0569786
0.0569681
0.0569977
0.0570707
0.057067
0.0570086
0.0570252
0.0570359
0.0570078
0.0569819
0.0569803
0.0569428
0.0569185
0.056833
0.0568533
0.0568791
0.0568281
0.0568495
0.0568646
0.00617751
0.01825
0.0324245
0.0480829
0.0636988
0.0711953
0.0802886
0.0840907
0.0888415
0.0897473
0.0912307
0.0908373
0.0906392
0.0898483
0.0890622
0.0881968
0.0871447
0.0862482
0.0850548
0.0841639
0.0830641
0.0821739
0.0811099
0.0802518
0.0792993
0.0784552
0.0775882
0.0768431
0.0760604
0.0753608
0.0746672
0.0740204
0.0732941
0.0726285
0.0719747
0.0712414
0.0706039
0.0698407
0.0691478
0.0684625
0.0678301
0.0671485
0.0665226
0.0659077
0.0653937
0.0648869
0.0644655
0.0640892
0.0636749
0.0632733
0.0628785
0.0624917
0.0621369
0.0617888
0.0614764
0.0611759
0.060912
0.0606476
0.0604223
0.0602109
0.0600452
0.0598968
0.0597541
0.0596154
0.0595167
0.0594041
0.0593362
0.0592776
0.059191
0.0591425
0.0590534
0.058948
0.0588376
0.0586596
0.0584614
0.0583191
0.058233
0.058084
0.057857
0.0576736
0.0573195
0.0570674
0.0568837
0.0566999
0.0564566
0.0561636
0.0560334
0.0558616
0.0557075
0.0556045
0.0554181
0.0552418
0.055043
0.054932
0.0548337
0.0546821
0.0545269
0.0543535
0.0541892
0.0540776
0.0539957
0.0538592
0.0537153
0.0535812
0.0535139
0.0534233
0.0533731
0.0532975
0.0532037
0.0531086
0.053053
0.0529521
0.0528222
0.0527217
0.0526402
0.0526175
0.0525814
0.0525172
0.0524222
0.0523328
0.0522368
0.0521816
0.0520856
0.0520305
0.0519659
0.0519294
0.0518515
0.0518197
0.0517738
0.0517075
0.0516814
0.0516697
0.0516859
0.0516717
0.0516116
0.0515663
0.0515939
0.0515957
0.0515712
0.0515763
0.0515572
0.0515805
0.0515764
0.0515178
0.0515482
0.0515279
0.0515005
0.0515106
0.0515105
0.0515159
0.0515254
0.0514948
0.051478
0.0514561
0.05147
0.0514267
0.0514149
0.0513705
0.0513732
0.0513549
0.0513584
0.0513617
0.0513947
0.0514012
0.0513823
0.0513704
0.0513796
0.0513295
0.0513181
0.0513399
0.0513427
0.0513318
0.0513209
0.0513487
0.0513635
0.0513373
0.0513289
0.0513386
0.0513654
0.051322
0.0513323
0.0513504
0.0513369
0.051395
0.0514051
0.0514286
0.0513856
0.0513962
0.0514103
0.0513791
0.0513471
0.0513498
0.0513192
0.0513125
0.0512383
0.0512638
0.0512834
0.0512356
0.0512758
0.0512462
0.00172248
0.00647611
0.012397
0.0200788
0.0306792
0.0390265
0.0495811
0.0568835
0.0644623
0.068736
0.0726557
0.0745408
0.0759899
0.0765359
0.0767181
0.0766218
0.0762024
0.0757302
0.0749362
0.0742732
0.0734354
0.0726991
0.071806
0.071042
0.0702018
0.0694245
0.0686231
0.0679098
0.0671724
0.0664995
0.065838
0.0652326
0.0645658
0.0639544
0.063365
0.0627153
0.062156
0.0614981
0.0608905
0.0602883
0.059732
0.059131
0.0585709
0.0580199
0.0575488
0.0570874
0.0567003
0.0563575
0.0559767
0.0556194
0.0552614
0.0549102
0.0545803
0.0542608
0.0539635
0.0536799
0.0534232
0.0531706
0.0529503
0.0527445
0.052577
0.0524306
0.0522989
0.052168
0.0520749
0.0519721
0.0519045
0.0518506
0.0517776
0.0517426
0.051675
0.051601
0.0515217
0.0513987
0.0512451
0.0511245
0.0510552
0.0509315
0.0507585
0.0506144
0.0503324
0.0501109
0.0499485
0.0497892
0.0495742
0.0493226
0.0491999
0.0490465
0.0489036
0.0488061
0.0486362
0.0484785
0.0483091
0.0482064
0.0481076
0.0479694
0.0478405
0.0476838
0.0475381
0.0474377
0.0473549
0.0472306
0.0471134
0.0469786
0.0469117
0.0468427
0.0467953
0.0467487
0.0466806
0.0466074
0.0465543
0.0464784
0.046359
0.0462443
0.0461472
0.046123
0.0460993
0.0460497
0.0459772
0.045914
0.0458258
0.0457701
0.0457135
0.0456413
0.045573
0.0455223
0.045446
0.0454227
0.0453803
0.0453335
0.0452911
0.0452742
0.0452993
0.0452784
0.0452289
0.0451774
0.0452015
0.045203
0.0451728
0.0451573
0.0451455
0.0451799
0.0451809
0.0451347
0.0451457
0.045138
0.0451281
0.045111
0.0451367
0.0451541
0.0451576
0.0451406
0.0450874
0.0450806
0.0450959
0.04508
0.0450706
0.045021
0.0450145
0.0450042
0.0450118
0.04501
0.0450293
0.045039
0.0450113
0.0450248
0.0450479
0.0449893
0.0449963
0.0449932
0.0449946
0.0449918
0.0449852
0.0449952
0.0450087
0.0450104
0.0449633
0.0450002
0.0449932
0.0449643
0.0449996
0.0449984
0.0449887
0.0450517
0.0450465
0.0450549
0.0450337
0.0450547
0.0450614
0.045034
0.0450022
0.0450001
0.0449824
0.0449739
0.0449289
0.0449469
0.0449589
0.0449162
0.0449427
0.0449136
0.000875067
0.00246828
0.00489779
0.00762966
0.0125021
0.0169237
0.023352
0.0291468
0.0362085
0.0420169
0.0478365
0.0521348
0.0557259
0.0582438
0.0600736
0.0613888
0.0621142
0.0626308
0.0626893
0.0626654
0.0624594
0.0621782
0.0617168
0.0612819
0.0607581
0.0602336
0.0596575
0.0591234
0.0585588
0.0580261
0.0574978
0.0570148
0.056476
0.0559772
0.0554952
0.054957
0.0544944
0.0539464
0.0534289
0.0529072
0.0524254
0.0518985
0.0513999
0.0509077
0.0504786
0.050059
0.0497029
0.0493891
0.0490392
0.0487214
0.0483987
0.0480834
0.0477816
0.0474938
0.0472163
0.0469551
0.0467113
0.0464756
0.0462666
0.0460737
0.045913
0.0457751
0.0456586
0.0455415
0.0454607
0.0453742
0.0453136
0.0452696
0.0452143
0.0451908
0.0451459
0.0450974
0.0450445
0.0449643
0.0448479
0.0447508
0.0446985
0.0446008
0.044472
0.0443598
0.0441339
0.0439413
0.0437994
0.0436606
0.043468
0.043248
0.0431322
0.0429916
0.0428585
0.0427647
0.0426068
0.042462
0.0423132
0.0422174
0.042119
0.0419931
0.0418804
0.0417394
0.04161
0.0415236
0.0414398
0.0413282
0.0412298
0.0410954
0.0410243
0.0409648
0.0409107
0.0408834
0.040836
0.0407929
0.0407464
0.0406677
0.0405695
0.0404497
0.040352
0.0403263
0.0402859
0.0402472
0.0401883
0.0401503
0.0400781
0.0400242
0.0399805
0.0399136
0.0398347
0.0397801
0.0397165
0.0396971
0.0396558
0.0396129
0.0395746
0.0395438
0.0395707
0.0395406
0.039503
0.0394484
0.0394667
0.0394634
0.0394507
0.0394179
0.039393
0.039424
0.0394279
0.0394126
0.0394103
0.0394007
0.0394073
0.0393828
0.039413
0.0394278
0.0394284
0.0394357
0.0393588
0.0393696
0.0393668
0.0393787
0.0393692
0.0393379
0.0393186
0.0393001
0.0393128
0.0393245
0.0393138
0.0393191
0.0393016
0.0393388
0.0393414
0.039285
0.0393059
0.0392904
0.0392882
0.0392873
0.0393007
0.0392903
0.0392994
0.0393114
0.0392576
0.0392871
0.0392831
0.0392537
0.0392958
0.0392892
0.0392929
0.0393332
0.0393453
0.0393347
0.0393235
0.0393456
0.0393489
0.0393273
0.0393044
0.0392925
0.0392869
0.0392766
0.0392539
0.0392623
0.0392709
0.0392407
0.0392432
0.0392227
0.00065659
0.00124277
0.00231764
0.00327077
0.00522329
0.00705506
0.00999592
0.0129101
0.0169613
0.0209931
0.025755
0.0302379
0.0346023
0.0383844
0.04159
0.0442991
0.0463297
0.0480315
0.0491661
0.0500729
0.0506407
0.0510607
0.0512214
0.0512888
0.0512362
0.0511041
0.0508721
0.0506298
0.0503342
0.0500272
0.0497089
0.0494091
0.0490504
0.048706
0.0483628
0.0479618
0.047612
0.0471806
0.0467597
0.0463217
0.0459167
0.0454634
0.0450271
0.0445941
0.0442087
0.0438313
0.0435052
0.0432186
0.0429006
0.0426205
0.0423336
0.0420548
0.0417845
0.0415307
0.0412787
0.0410443
0.0408181
0.0406013
0.0404067
0.0402291
0.040079
0.0399509
0.0398488
0.0397464
0.0396792
0.0396088
0.0395565
0.0395231
0.0394847
0.0394707
0.0394454
0.0394168
0.0393856
0.0393386
0.0392564
0.039182
0.0391449
0.0390736
0.0389835
0.0388991
0.038723
0.0385585
0.038438
0.0383187
0.0381481
0.0379553
0.0378466
0.0377166
0.0375929
0.0375016
0.0373536
0.0372193
0.0370855
0.0369957
0.0368991
0.0367859
0.0366831
0.0365589
0.0364432
0.0363712
0.0362871
0.0361891
0.0361016
0.0359751
0.035898
0.03584
0.0357739
0.0357495
0.0357145
0.0356959
0.0356631
0.0355788
0.0354992
0.0353951
0.035311
0.0352671
0.035206
0.0351712
0.0351147
0.0350899
0.0350486
0.0350018
0.0349549
0.034899
0.0348168
0.034763
0.0347192
0.0346957
0.0346593
0.0346085
0.0345884
0.0345659
0.0345628
0.0345388
0.0344981
0.0344594
0.0344492
0.0344457
0.0344562
0.0344276
0.0343812
0.0343931
0.0343955
0.0344109
0.0343982
0.0343916
0.0343962
0.0343775
0.0344023
0.0344128
0.0344042
0.0344186
0.0343716
0.034371
0.0343556
0.0343909
0.0343805
0.0343681
0.0343363
0.0343252
0.0343366
0.0343519
0.0343184
0.0343268
0.0343213
0.0343546
0.0343456
0.0343001
0.0343149
0.0343092
0.0342997
0.0342962
0.0343109
0.0342929
0.0343082
0.0343134
0.0342779
0.0342852
0.0342993
0.0342606
0.0342816
0.0342774
0.03432
0.0343326
0.0343482
0.0343313
0.0343284
0.0343436
0.0343444
0.0343275
0.0343147
0.0342953
0.0343031
0.0343076
0.0342841
0.0342703
0.0342873
0.0342687
0.0342722
0.0342412
0.000586106
0.000833472
0.00135433
0.0017468
0.00256435
0.0032778
0.00451252
0.00573871
0.00755845
0.00951716
0.012086
0.014904
0.0180821
0.0213696
0.0246026
0.0277617
0.0305066
0.0330482
0.0350869
0.0368714
0.0382598
0.0394394
0.0403011
0.0409958
0.0414907
0.041851
0.042062
0.0422045
0.0422563
0.0422495
0.042211
0.042149
0.0420185
0.0418706
0.0416966
0.0414625
0.0412497
0.0409495
0.0406397
0.040296
0.0399733
0.0395997
0.0392325
0.0388636
0.0385286
0.0381971
0.0379047
0.0376489
0.037366
0.0371231
0.0368744
0.0366336
0.036399
0.0361821
0.0359618
0.0357594
0.0355565
0.0353611
0.0351845
0.0350242
0.0348862
0.0347698
0.0346796
0.0345914
0.0345368
0.034481
0.0344372
0.0344141
0.0343906
0.0343817
0.0343766
0.0343622
0.0343463
0.0343286
0.0342777
0.0342255
0.0342023
0.0341562
0.0341007
0.0340415
0.0339133
0.0337771
0.0336807
0.0335822
0.033436
0.0332713
0.0331701
0.0330506
0.0329383
0.0328491
0.0327104
0.0325862
0.0324646
0.0323797
0.0322868
0.0321871
0.0320902
0.0319833
0.0318815
0.0318231
0.0317407
0.0316595
0.0315766
0.0314724
0.0313919
0.0313307
0.031261
0.0312353
0.0311965
0.0311809
0.0311607
0.0310745
0.0310126
0.0309275
0.0308528
0.0308066
0.0307362
0.0306978
0.0306445
0.0306203
0.0305958
0.0305599
0.0305193
0.0304747
0.0304008
0.0303406
0.0303135
0.0302893
0.030261
0.030209
0.0301937
0.0301926
0.0301669
0.0301397
0.030097
0.030065
0.0300416
0.0300286
0.0300338
0.0300237
0.0299859
0.0299699
0.0299676
0.0299988
0.0299871
0.0299804
0.0299786
0.029964
0.0299695
0.0299866
0.0299714
0.0299872
0.0299837
0.0299618
0.0299426
0.0299846
0.0299676
0.0299693
0.0299599
0.0299328
0.0299471
0.0299497
0.0299124
0.0299195
0.0299283
0.0299337
0.0299465
0.0299034
0.0299021
0.0299091
0.0298928
0.0298966
0.0299097
0.0298838
0.0299087
0.0298988
0.0298832
0.029881
0.0298879
0.0298608
0.0298666
0.0298634
0.0299113
0.0299093
0.0299177
0.0299176
0.0299282
0.0299253
0.0299254
0.0299077
0.0299217
0.0298926
0.0299118
0.0299124
0.029895
0.0298741
0.0298886
0.0298737
0.0298823
0.0298551
0.000560422
0.00067595
0.000945051
0.00113633
0.00152838
0.00183519
0.00237419
0.00288335
0.00365071
0.00448469
0.0056094
0.00694103
0.00856692
0.0104718
0.0125651
0.0149385
0.0172867
0.0197533
0.0220108
0.0241858
0.0260801
0.0278207
0.0292672
0.030536
0.0315743
0.0324462
0.0331296
0.0337025
0.0341471
0.0345015
0.0347724
0.0350059
0.0351356
0.0352263
0.0352529
0.0352168
0.0351621
0.0350132
0.0348427
0.0346128
0.0343822
0.0340976
0.0338122
0.0335163
0.0332405
0.0329618
0.0327177
0.0324964
0.0322553
0.0320528
0.0318429
0.0316411
0.031446
0.0312696
0.031087
0.0309219
0.0307499
0.0305803
0.030426
0.0302842
0.0301636
0.0300593
0.0299791
0.0299046
0.029862
0.0298189
0.0297827
0.029771
0.0297529
0.0297626
0.029767
0.0297646
0.0297644
0.0297657
0.0297437
0.0297138
0.0297042
0.0296844
0.0296587
0.0296232
0.0295386
0.0294335
0.0293637
0.029288
0.0291686
0.0290334
0.0289453
0.0288372
0.0287419
0.0286545
0.0285259
0.0284105
0.0283004
0.0282195
0.0281327
0.0280464
0.0279539
0.0278636
0.0277756
0.0277313
0.0276566
0.0275935
0.0275118
0.0274413
0.0273661
0.0273021
0.0272507
0.0272084
0.0271693
0.0271438
0.0271134
0.0270233
0.0269831
0.026922
0.0268586
0.0268242
0.0267672
0.0267187
0.0266595
0.0266273
0.0265921
0.0265663
0.0265415
0.02651
0.0264517
0.0263905
0.0263686
0.026346
0.0263279
0.0262864
0.0262649
0.0262523
0.0262345
0.0262071
0.0261683
0.0261443
0.0261048
0.0260885
0.0260792
0.0260717
0.0260607
0.0260473
0.0260247
0.0260458
0.0260631
0.0260492
0.0260459
0.0260168
0.0260065
0.0260097
0.0260295
0.0260444
0.0260544
0.0260383
0.0260099
0.0260308
0.0260184
0.0260246
0.0260321
0.0260073
0.0260137
0.0260019
0.0259886
0.0259826
0.0259918
0.02599
0.0260052
0.0259753
0.0259662
0.02597
0.0259589
0.0259633
0.0259625
0.0259524
0.0259696
0.0259569
0.025957
0.0259497
0.0259238
0.0259306
0.0259369
0.025927
0.0259581
0.0259617
0.0259506
0.0259683
0.0259958
0.0259755
0.0259723
0.0259616
0.0259689
0.0259577
0.0259691
0.025962
0.0259638
0.0259516
0.025947
0.0259483
0.0259481
0.0259383
0.0005501
0.00060756
0.000751803
0.000855816
0.00106656
0.00121939
0.00148169
0.00171561
0.00205816
0.00242002
0.0028946
0.00346733
0.00416603
0.00505341
0.00606006
0.0073435
0.00871643
0.0103519
0.0120251
0.0138402
0.0155973
0.01738
0.019016
0.0205673
0.0219475
0.0231974
0.0242658
0.0252208
0.0260321
0.0267415
0.0273327
0.0278722
0.028283
0.0286302
0.0288924
0.0290572
0.0292076
0.0292044
0.0292079
0.0291122
0.0289919
0.0288056
0.0286199
0.028411
0.0282088
0.0279941
0.0278092
0.0276292
0.0274374
0.0272784
0.0271115
0.0269549
0.0268025
0.0266753
0.0265326
0.0264075
0.0262682
0.0261284
0.0260008
0.0258854
0.025782
0.0256932
0.0256255
0.0255635
0.0255324
0.0255004
0.0254757
0.0254722
0.0254666
0.0254824
0.0255005
0.0255124
0.0255281
0.0255387
0.0255349
0.0255287
0.0255364
0.0255363
0.0255394
0.0255302
0.0254824
0.0254105
0.0253686
0.0253177
0.0252263
0.0251215
0.0250564
0.0249653
0.0248874
0.0248032
0.0246872
0.0245793
0.0244849
0.0244064
0.024328
0.0242529
0.0241675
0.0240943
0.0240197
0.0239894
0.0239282
0.023878
0.0238038
0.0237648
0.0237013
0.0236436
0.0236141
0.0235636
0.0235268
0.0234808
0.0234396
0.0233442
0.023325
0.0232942
0.0232533
0.0232311
0.0231855
0.0231314
0.0230559
0.023004
0.0229581
0.0229294
0.0229221
0.0229083
0.0228711
0.0228181
0.0227951
0.022774
0.0227581
0.0227384
0.0227023
0.0226763
0.0226562
0.0226441
0.0226142
0.0226014
0.0225482
0.0225367
0.0225109
0.022494
0.022509
0.0225101
0.0224836
0.0224859
0.0224962
0.0224866
0.0224801
0.02246
0.0224416
0.0224301
0.0224673
0.0224814
0.022499
0.0224922
0.0224556
0.0224467
0.0224419
0.0224451
0.0224581
0.0224455
0.0224498
0.0224336
0.022449
0.0224326
0.022441
0.0224279
0.0224283
0.0224158
0.0224127
0.0224074
0.0223992
0.0224018
0.0224044
0.0223889
0.022404
0.0223902
0.0223957
0.0223816
0.0223519
0.0223745
0.0223878
0.0223733
0.0223837
0.0223983
0.0223786
0.02239
0.0224296
0.0224015
0.0223927
0.022401
0.0223944
0.0223918
0.0223873
0.0223851
0.0223986
0.0223961
0.0223838
0.0223935
0.0223979
0.0223933
0.000545393
0.000575368
0.000653553
0.000712877
0.000833874
0.00091932
0.00106098
0.00118307
0.00135355
0.00152753
0.00174361
0.00200083
0.00229626
0.00268921
0.00311373
0.00370182
0.00433432
0.00516518
0.00606209
0.00715006
0.00829112
0.00958283
0.0108894
0.0122521
0.013575
0.0148779
0.0160782
0.017221
0.0182547
0.0192126
0.0200541
0.0208465
0.0215105
0.0220944
0.0225872
0.0229573
0.0232919
0.0234723
0.0236452
0.0237172
0.0237194
0.023637
0.0235726
0.0234583
0.0233426
0.0232013
0.0230888
0.0229608
0.0228257
0.0227117
0.0225941
0.0224878
0.0223881
0.0223216
0.0222199
0.0221366
0.022032
0.0219267
0.0218338
0.0217465
0.0216634
0.0215926
0.0215409
0.0215049
0.0214845
0.0214541
0.0214426
0.0214357
0.0214396
0.0214644
0.0214948
0.02152
0.0215467
0.0215745
0.0215892
0.0216007
0.0216274
0.0216427
0.0216709
0.0216915
0.0216721
0.0216332
0.0216261
0.0215944
0.0215328
0.0214621
0.0214258
0.0213563
0.0212969
0.0212177
0.0211175
0.0210213
0.0209474
0.0208721
0.0208018
0.0207349
0.0206609
0.0206042
0.0205469
0.0205369
0.0204837
0.0204415
0.0203841
0.0203576
0.0203146
0.0202742
0.0202586
0.0202104
0.0201806
0.0201282
0.0200896
0.0200064
0.0200068
0.0199829
0.0199577
0.0199471
0.0198968
0.01984
0.0197574
0.0196991
0.0196511
0.0196211
0.0196183
0.0196116
0.0195924
0.0195517
0.0195348
0.0195221
0.0194928
0.0194875
0.0194581
0.0194183
0.0193908
0.0193918
0.0193645
0.0193581
0.019319
0.0193032
0.0192822
0.0192544
0.0192719
0.0192764
0.0192638
0.0192484
0.0192379
0.0192323
0.0192214
0.0192255
0.0192068
0.0191934
0.0192159
0.0192177
0.019233
0.0192338
0.019212
0.0191856
0.019187
0.0191812
0.0191909
0.0191943
0.0191853
0.0191801
0.0191937
0.0191877
0.0192042
0.0191761
0.0191701
0.0191781
0.0191679
0.0191607
0.0191557
0.019157
0.0191604
0.0191457
0.019152
0.0191392
0.0191513
0.0191332
0.0191146
0.0191313
0.0191422
0.0191365
0.0191387
0.0191408
0.0191295
0.0191354
0.0191627
0.019148
0.0191459
0.0191574
0.019145
0.019147
0.0191222
0.0191246
0.0191549
0.0191539
0.0191317
0.0191544
0.0191628
0.0191592
0.000542852
0.000559004
0.000601182
0.000635142
0.000706034
0.00075699
0.000839221
0.000909369
0.00100317
0.00109679
0.00120649
0.00133513
0.00147047
0.0016557
0.00183713
0.00210164
0.00237077
0.00274701
0.00314723
0.00367724
0.00424708
0.00495119
0.00571532
0.00658698
0.00750568
0.00849871
0.00949084
0.0105122
0.0115038
0.0124853
0.0134006
0.0142966
0.0151053
0.0158392
0.0165024
0.017038
0.0175272
0.017879
0.0181794
0.0183837
0.0185268
0.0185807
0.0186829
0.018636
0.0186008
0.0185555
0.0185285
0.018446
0.0183745
0.0183205
0.0182558
0.0182313
0.0181988
0.0181802
0.0181063
0.0180672
0.0179972
0.0179386
0.0178896
0.0178264
0.0177785
0.017731
0.0176909
0.0176806
0.017665
0.0176363
0.0176373
0.0176199
0.0176339
0.0176696
0.017712
0.0177516
0.0177879
0.0178334
0.0178639
0.0178912
0.0179368
0.0179638
0.0180116
0.0180683
0.0180732
0.018074
0.0180933
0.0180758
0.0180443
0.0180119
0.0180246
0.0179652
0.017922
0.0178521
0.0177722
0.0176917
0.0176482
0.0175767
0.0175166
0.0174563
0.0173948
0.0173552
0.0173345
0.0173233
0.0172751
0.0172383
0.0172028
0.0171806
0.0171592
0.0171421
0.0171445
0.0171042
0.0171027
0.0170582
0.017023
0.0169599
0.016956
0.0169403
0.0169194
0.0169085
0.0168548
0.0167994
0.0167382
0.0166809
0.0166383
0.0166071
0.0165959
0.0166034
0.0165974
0.0165592
0.0165535
0.0165523
0.0165202
0.0165109
0.0164964
0.0164377
0.0164149
0.0164027
0.0163869
0.0163885
0.0163616
0.0163381
0.0163291
0.0163153
0.0163164
0.0163077
0.0163216
0.0162854
0.0162605
0.0162697
0.0162477
0.0162576
0.0162473
0.0162399
0.0162409
0.0162428
0.0162373
0.0162389
0.0162331
0.0162143
0.0162235
0.0162055
0.0162046
0.0162179
0.0162067
0.0162069
0.0162149
0.016218
0.0162253
0.0162004
0.0161891
0.016225
0.0161991
0.0161993
0.0161925
0.0161946
0.0161873
0.0161797
0.016174
0.0161716
0.0161929
0.0161686
0.0161586
0.0161646
0.0161601
0.016175
0.0161705
0.016163
0.016154
0.0161705
0.0161712
0.0161779
0.0161759
0.0161726
0.0161639
0.0161693
0.0161474
0.0161569
0.0161888
0.0161961
0.0161739
0.0161981
0.016196
0.016198
0.000541241
0.000549868
0.000572126
0.000591095
0.000632049
0.000662908
0.000712338
0.000754892
0.000810075
0.000864831
0.00092593
0.000997364
0.00106606
0.00116239
0.00124746
0.00137515
0.00149425
0.00166714
0.00183978
0.00208027
0.00233307
0.00266126
0.00302757
0.00346929
0.00395999
0.00453194
0.00514299
0.00582343
0.00653317
0.00729016
0.00804941
0.008832
0.00959718
0.0103219
0.0110207
0.0116226
0.0121822
0.0126428
0.0130314
0.0133391
0.0135885
0.0137539
0.013908
0.0139901
0.0140454
0.0140694
0.0141302
0.0141189
0.0141249
0.0141801
0.0141637
0.0141303
0.0141365
0.0142184
0.0142184
0.0142333
0.0141971
0.0141804
0.0141822
0.0141552
0.0141626
0.0141422
0.0141221
0.0140688
0.014059
0.0140578
0.0140593
0.0140322
0.0140536
0.0140998
0.0141535
0.0142078
0.0142543
0.0143146
0.0143617
0.0144041
0.014465
0.0145046
0.0145651
0.0146284
0.0146636
0.0146923
0.0147533
0.0147656
0.0147701
0.0147589
0.0148088
0.0147622
0.0147433
0.0146892
0.0146396
0.0145896
0.0145885
0.014511
0.0144568
0.014405
0.014355
0.0143611
0.0143255
0.014334
0.0142868
0.0142639
0.0142479
0.0142293
0.0142349
0.0142402
0.0142508
0.014252
0.0142478
0.014245
0.0142019
0.0141768
0.0141664
0.0141304
0.0141088
0.0140864
0.0140379
0.0139914
0.0139753
0.0139195
0.0138761
0.0138548
0.0138554
0.0138462
0.0138481
0.0138209
0.0138039
0.0138068
0.0137871
0.0137697
0.0137665
0.0137209
0.0137111
0.013673
0.0136646
0.0136815
0.0136599
0.0136453
0.0136343
0.0136278
0.0136206
0.0136056
0.0136078
0.0135696
0.013551
0.0135621
0.0135409
0.0135395
0.0135242
0.0135295
0.0135192
0.0135209
0.0135107
0.0135084
0.0135137
0.0135103
0.0135113
0.0134963
0.0134822
0.0134873
0.0134859
0.0134995
0.0135088
0.0135071
0.0135026
0.0134773
0.0134892
0.0135063
0.0134865
0.0134871
0.0134953
0.0134813
0.0134777
0.0134618
0.0134661
0.0134611
0.0134743
0.0134651
0.0134478
0.013449
0.0134477
0.0134624
0.0134406
0.0134396
0.0134439
0.0134542
0.0134395
0.0134683
0.0134482
0.0134325
0.0134432
0.0134386
0.0134436
0.0134555
0.0134663
0.0134969
0.0134839
0.013486
0.0134835
0.0134883
0.000540074
0.000544208
0.000555188
0.000565283
0.00058793
0.000606116
0.000635802
0.000661971
0.000695419
0.000728927
0.000765046
0.00080763
0.000845699
0.000900128
0.000944379
0.00101167
0.00106958
0.00115511
0.00123458
0.00134688
0.00146074
0.00160887
0.00177388
0.00197576
0.00220391
0.00248065
0.00278604
0.00314573
0.00354003
0.00398705
0.00446741
0.00498822
0.00554033
0.00609273
0.00666081
0.00718894
0.00769315
0.00814946
0.00854837
0.00888639
0.00917764
0.00940873
0.00959891
0.00974782
0.0098659
0.00995447
0.0100254
0.0100908
0.0101475
0.0102158
0.0102682
0.0103141
0.0103673
0.0104365
0.010489
0.0105562
0.0106041
0.0106794
0.0107581
0.0107789
0.0107997
0.0107945
0.0107989
0.0107201
0.0107637
0.0107685
0.010755
0.0107166
0.0107429
0.0107977
0.0108607
0.0109274
0.0109854
0.0110551
0.0111194
0.0111751
0.0112478
0.0113004
0.0113685
0.0114371
0.0114965
0.0115353
0.0115976
0.0116438
0.0116729
0.0117095
0.0117769
0.0117498
0.0118012
0.0117484
0.0117677
0.0117138
0.0117439
0.0116655
0.0116234
0.0116144
0.0115901
0.011557
0.0115613
0.0115573
0.0115256
0.0115204
0.011518
0.0115166
0.0115085
0.0115019
0.0115399
0.0115928
0.0116048
0.0116211
0.0115842
0.0116002
0.0115955
0.0115485
0.0115319
0.0114856
0.0114681
0.0114259
0.0114514
0.0113883
0.0113863
0.0113779
0.0113508
0.0113096
0.0113368
0.0113187
0.0113081
0.0112775
0.0112965
0.0112662
0.0112867
0.0112485
0.0112586
0.0112178
0.0112117
0.0112216
0.011187
0.0112006
0.0111922
0.0111564
0.0111659
0.0111577
0.0111227
0.0110996
0.0110779
0.0111011
0.0110579
0.0110601
0.0110551
0.0110627
0.0110518
0.0110503
0.0110452
0.0110378
0.0110295
0.011017
0.0110483
0.0110425
0.0110346
0.0110228
0.0110276
0.0110265
0.0110433
0.0110193
0.0110319
0.011025
0.0110301
0.0110173
0.011039
0.0110226
0.0110323
0.0110074
0.0110137
0.0110127
0.0109929
0.0109981
0.0109965
0.0109892
0.0109943
0.0109809
0.0109773
0.0109905
0.0109722
0.010963
0.010988
0.0109654
0.0109773
0.010985
0.0109758
0.0109746
0.0109635
0.0109661
0.0109801
0.0109899
0.0109864
0.0109999
0.0110329
0.0110185
0.010998
0.0110255
0.000539167
0.000540294
0.000544696
0.00054957
0.000561035
0.000571011
0.000588148
0.000603819
0.000623936
0.000644581
0.000666412
0.000692655
0.000714971
0.00074733
0.000772306
0.000810225
0.000841165
0.000886727
0.00092681
0.000983045
0.00103835
0.00110839
0.00118541
0.00127827
0.0013824
0.00150949
0.00164969
0.00181928
0.00200834
0.00222938
0.00247755
0.00275555
0.0030675
0.00339708
0.00375171
0.00411008
0.00446149
0.00480587
0.0051225
0.00540716
0.00566029
0.00588505
0.00606818
0.00622933
0.00636243
0.00648078
0.00656829
0.00666192
0.00674588
0.00683318
0.0069154
0.00699867
0.00707843
0.00715881
0.00724258
0.00733155
0.00742529
0.00749987
0.00759997
0.00766494
0.00770439
0.00779459
0.00783955
0.00775665
0.00782493
0.0078378
0.0078186
0.00776466
0.00779117
0.00784966
0.00791763
0.00799009
0.00805815
0.0081308
0.00820807
0.00827443
0.00835437
0.00841709
0.00849125
0.00855982
0.00863619
0.0086857
0.00875296
0.00881579
0.00886477
0.0088987
0.00895968
0.00899324
0.00908362
0.00907947
0.0091011
0.00909912
0.00911219
0.00908652
0.00907157
0.00903545
0.00904016
0.00903062
0.00898583
0.00901487
0.00902446
0.00902683
0.00901008
0.0090595
0.00905477
0.00903623
0.00906012
0.00910911
0.00915018
0.00918414
0.00918804
0.00919708
0.00920251
0.00915422
0.009153
0.0091238
0.0091123
0.00909004
0.00911106
0.00909023
0.00909349
0.00908701
0.00906637
0.0090162
0.00905745
0.00903163
0.00906514
0.00902226
0.0090438
0.00900509
0.00903219
0.00902624
0.00902242
0.00897293
0.00899407
0.00899854
0.00895407
0.00896372
0.00895573
0.00893144
0.00890617
0.00892876
0.00888832
0.0088688
0.00884684
0.00887801
0.00884835
0.00883988
0.00883395
0.00883784
0.00883061
0.0088324
0.00882378
0.00882387
0.00880817
0.00878279
0.00880532
0.00883715
0.00882503
0.00880142
0.00880856
0.00881874
0.00879378
0.00880892
0.0087867
0.0088159
0.00878868
0.00880669
0.00881246
0.00880531
0.00880776
0.00879949
0.00877085
0.00879377
0.00879889
0.0087736
0.00878145
0.00876777
0.00877969
0.00876536
0.00873783
0.00876516
0.00875621
0.00873867
0.00877636
0.00875759
0.00874537
0.00876094
0.00875369
0.00875749
0.00874464
0.00872899
0.00877601
0.00875559
0.00878557
0.00875951
0.00882145
0.00878428
0.00878281
0.00880197
0.000538287
0.000537239
0.000538012
0.000539571
0.000544183
0.000548938
0.000557871
0.000566551
0.000578018
0.000590298
0.000603239
0.000619321
0.000632594
0.000652144
0.00066688
0.00068904
0.000706643
0.000732219
0.000753996
0.000783962
0.000812914
0.000848308
0.000886856
0.00093195
0.00098182
0.00104186
0.0011071
0.00118622
0.00127366
0.00137648
0.00149325
0.00162603
0.00177734
0.00194446
0.00212565
0.00232294
0.00251857
0.00272294
0.00291796
0.00310509
0.00327277
0.00343612
0.00356989
0.0036986
0.00380473
0.00391091
0.00399008
0.00407803
0.00415788
0.00424435
0.00432129
0.00441118
0.00449269
0.00457057
0.00466148
0.00475222
0.00484792
0.00491097
0.0050069
0.00508219
0.00515678
0.00521787
0.00534332
0.00534454
0.00530467
0.00538776
0.00536806
0.00529948
0.00532212
0.00537858
0.00544358
0.00550998
0.00557931
0.00564759
0.00572721
0.00579816
0.00587913
0.00594529
0.00602284
0.00608612
0.00617123
0.00622498
0.00629897
0.00636466
0.00643326
0.00646609
0.00651493
0.00655675
0.00661171
0.00663831
0.0066926
0.00670672
0.00677383
0.00676323
0.00677431
0.00674045
0.00675091
0.00675484
0.00674173
0.00671405
0.00674061
0.00676574
0.006792