/*--------------------------------*- C++ -*----------------------------------*\
  =========                 |
  \\      /  F ield         | OpenFOAM: The Open Source CFD Toolbox
   \\    /   O peration     | Website:  https://openfoam.org
    \\  /    A nd           | Version:  12
     \\/     M anipulation  |
\*---------------------------------------------------------------------------*/
FoamFile
{
    format      ascii;
    class       surfaceScalarField;
    location    "100";
    object      phi;
}
// * * * * * * * * * * * * * * * * * * * * * * * * * * * * * * * * * * * * * //

dimensions      [0 3 -1 0 0 0 0];

internalField   nonuniform List<scalar> 
39700
(
0.000289064
0.000218398
0.000158823
0.00013024
0.000114103
4.47195e-05
9.68669e-05
1.72349e-05
8.76779e-05
9.18889e-06
8.1824e-05
5.85412e-06
7.80309e-05
3.79285e-06
7.53348e-05
2.6962e-06
7.3338e-05
1.99676e-06
7.16306e-05
1.7073e-06
7.02464e-05
1.38408e-06
6.89842e-05
1.26222e-06
6.7937e-05
1.04687e-06
6.69962e-05
9.40583e-07
6.62167e-05
7.7933e-07
6.54923e-05
7.24183e-07
6.48473e-05
6.44813e-07
6.42398e-05
6.07144e-07
6.36795e-05
5.60151e-07
6.3169e-05
5.10105e-07
6.26917e-05
4.77236e-07
6.22369e-05
4.54515e-07
6.1807e-05
4.29688e-07
6.14041e-05
4.02741e-07
6.10239e-05
3.79799e-07
6.06661e-05
3.57449e-07
6.0331e-05
3.3483e-07
6.0022e-05
3.08538e-07
5.97231e-05
2.98699e-07
5.9441e-05
2.81636e-07
5.916e-05
2.80409e-07
5.88736e-05
2.85852e-07
5.85736e-05
2.98648e-07
5.82742e-05
2.98979e-07
5.7964e-05
3.09221e-07
5.76405e-05
3.23818e-07
5.73071e-05
3.30741e-07
5.69724e-05
3.34411e-07
5.66583e-05
3.13484e-07
5.6357e-05
3.03411e-07
5.60641e-05
2.91072e-07
5.58042e-05
2.60972e-07
5.55539e-05
2.504e-07
5.53269e-05
2.2884e-07
5.51242e-05
2.03358e-07
5.49396e-05
1.85949e-07
5.47743e-05
1.6611e-07
5.46226e-05
1.52719e-07
5.44755e-05
1.47659e-07
5.43221e-05
1.53837e-07
5.41809e-05
1.41849e-07
5.40465e-05
1.34795e-07
5.39196e-05
1.27267e-07
5.38007e-05
1.18919e-07
5.36788e-05
1.22376e-07
5.35587e-05
1.20465e-07
5.34628e-05
9.65083e-08
5.33707e-05
9.26106e-08
5.32818e-05
8.91934e-08
5.31942e-05
8.84682e-08
5.31147e-05
7.87405e-08
5.30508e-05
6.36403e-08
5.29811e-05
6.92895e-08
5.29145e-05
6.60576e-08
5.28507e-05
6.31946e-08
5.27857e-05
6.53741e-08
5.2727e-05
5.79434e-08
5.2681e-05
4.585e-08
5.26205e-05
6.04552e-08
5.25607e-05
6.04636e-08
5.24896e-05
7.07799e-08
5.2408e-05
8.29401e-08
5.23194e-05
8.75301e-08
5.22096e-05
1.10368e-07
5.21256e-05
8.42742e-08
5.20558e-05
7.23585e-08
5.19925e-05
6.18686e-08
5.19065e-05
8.60053e-08
5.17946e-05
1.11836e-07
5.16872e-05
1.07876e-07
5.15615e-05
1.25688e-07
5.14631e-05
9.88604e-08
5.1373e-05
9.0281e-08
5.12771e-05
9.58605e-08
5.1184e-05
9.47671e-08
5.10777e-05
1.06568e-07
5.10033e-05
7.54394e-08
5.09309e-05
7.33874e-08
5.08695e-05
6.10296e-08
5.08313e-05
3.7359e-08
5.07751e-05
5.7206e-08
5.06924e-05
8.31136e-08
5.06117e-05
7.92874e-08
5.05621e-05
4.96301e-08
5.05277e-05
3.46744e-08
5.04634e-05
6.36989e-08
5.03885e-05
7.89113e-08
5.03277e-05
6.33758e-08
5.02647e-05
6.27038e-08
5.02251e-05
3.30569e-08
5.02273e-05
6.18804e-09
5.01853e-05
4.21389e-08
5.01237e-05
6.05343e-08
5.01054e-05
1.6233e-08
5.00383e-05
6.1864e-08
4.99823e-05
5.30383e-08
4.99208e-05
6.19124e-08
4.98367e-05
8.58515e-08
4.97646e-05
7.06067e-08
4.96931e-05
7.49845e-08
4.97172e-05
-2.19451e-08
4.97259e-05
-2.14369e-09
4.96792e-05
3.81645e-08
4.96223e-05
5.67999e-08
4.95252e-05
9.88085e-08
4.94707e-05
5.16542e-08
4.94571e-05
2.06204e-08
4.94884e-05
-2.97181e-08
4.94864e-05
2.496e-09
4.9417e-05
6.12821e-08
4.9425e-05
-6.7724e-09
4.94275e-05
-3.388e-09
4.93373e-05
8.76353e-08
4.92902e-05
4.3073e-08
4.93345e-05
-2.89324e-08
4.93158e-05
1.93611e-08
4.92811e-05
3.74885e-08
4.92497e-05
3.23895e-08
4.92507e-05
-3.94976e-09
4.92301e-05
1.78935e-08
4.92137e-05
2.07428e-08
4.91958e-05
3.03311e-08
4.91244e-05
6.20074e-08
4.90703e-05
5.10155e-08
4.91205e-05
-4.73022e-08
4.91304e-05
-3.67201e-09
4.90565e-05
6.86034e-08
4.9051e-05
2.91389e-09
4.9064e-05
-1.1075e-08
4.91122e-05
-5.56264e-08
4.91254e-05
-6.49518e-09
4.91141e-05
8.48629e-09
4.91055e-05
8.66848e-09
4.9079e-05
2.65869e-08
4.90816e-05
-8.99676e-09
4.91069e-05
-3.02337e-08
4.91348e-05
-3.31243e-08
4.91045e-05
2.15702e-08
4.91057e-05
-2.80696e-09
4.9116e-05
-1.08959e-08
4.90834e-05
2.77121e-08
4.90885e-05
-1.01979e-08
4.90845e-05
7.39699e-09
4.90829e-05
4.95842e-09
4.90578e-05
2.65918e-08
4.90029e-05
6.24232e-08
4.8965e-05
3.22786e-08
4.89283e-05
3.78823e-08
4.90081e-05
-7.82995e-08
4.90555e-05
-3.47673e-08
4.89967e-05
4.00619e-08
4.89738e-05
2.0831e-08
4.89723e-05
-1.70046e-09
4.9002e-05
-2.31788e-08
4.89728e-05
2.02892e-08
4.89084e-05
6.52508e-08
4.89355e-05
-2.83535e-08
4.89366e-05
-3.80028e-09
4.89005e-05
4.28698e-08
4.89832e-05
-7.82044e-08
4.89438e-05
3.9266e-08
4.88661e-05
7.85932e-08
4.89452e-05
-7.43295e-08
4.8927e-05
1.90884e-08
4.88663e-05
6.12192e-08
4.89244e-05
-5.59309e-08
4.89338e-05
-1.00009e-08
4.89168e-05
1.68954e-08
4.89525e-05
-3.34437e-08
4.89281e-05
2.81016e-08
4.89352e-05
-1.3259e-08
4.89291e-05
4.52434e-09
4.88401e-05
8.67808e-08
4.89018e-05
-6.54131e-08
4.8968e-05
-6.71588e-08
4.89377e-05
2.99322e-08
4.89286e-05
7.93301e-09
4.89382e-05
-9.62957e-09
4.89578e-05
-1.55576e-08
4.89474e-05
1.3098e-08
4.89072e-05
4.19216e-08
4.88806e-05
3.03172e-08
4.88412e-05
3.4412e-08
4.88838e-05
-4.5577e-08
4.8885e-05
-4.81068e-10
4.88039e-05
8.27381e-08
4.88372e-05
-3.45909e-08
4.88119e-05
2.50654e-08
4.88452e-05
-3.53756e-08
-1.09963e-07
0.00048831
0.000261965
0.000397784
0.000220766
0.000326551
0.000115953
0.000282545
6.12406e-05
0.000254861
3.68725e-05
0.000236441
2.42738e-05
0.000223517
1.67175e-05
0.000213763
1.24506e-05
0.000206165
9.59441e-06
0.00019989
7.98221e-06
0.000194699
6.57573e-06
0.000190211
5.74993e-06
0.000186417
4.84098e-06
0.000183082
4.27517e-06
0.000180225
3.63598e-06
0.000177634
3.31492e-06
0.000175336
2.94299e-06
0.000173227
2.71532e-06
0.000171313
2.47384e-06
0.000169571
2.25181e-06
0.000167963
2.08572e-06
0.000166464
1.95265e-06
0.000165068
1.82597e-06
0.000163776
1.69455e-06
0.000162563
1.59173e-06
0.000161435
1.48503e-06
0.000160386
1.38355e-06
0.000159414
1.28032e-06
0.000158485
1.22767e-06
0.000157613
1.1537e-06
0.000156765
1.1276e-06
0.000155924
1.12607e-06
0.000155075
1.1466e-06
0.000154252
1.12177e-06
0.000153424
1.13686e-06
0.000152598
1.15002e-06
0.00015178
1.14716e-06
0.000150984
1.132e-06
0.000150239
1.05981e-06
0.000149534
1.01207e-06
0.000148873
9.52519e-07
0.000148269
8.67699e-07
0.000147699
8.21787e-07
0.000147182
7.49172e-07
0.000146715
6.72206e-07
0.000146286
6.17049e-07
0.000145899
5.54576e-07
0.000145544
5.09398e-07
0.000145199
4.93735e-07
0.000144852
5.01778e-07
0.000144523
4.71436e-07
0.000144205
4.52755e-07
0.000143896
4.37428e-07
0.000143599
4.16686e-07
0.000143303
4.19546e-07
0.00014302
4.03843e-07
0.000142769
3.48809e-07
0.000142526
3.35691e-07
0.000142293
3.22875e-07
0.000142067
3.15716e-07
0.000141863
2.8186e-07
0.000141675
2.50545e-07
0.000141479
2.63793e-07
0.000141297
2.46556e-07
0.000141116
2.42936e-07
0.000140936
2.43822e-07
0.000140788
2.05724e-07
0.000140641
1.91321e-07
0.000140478
2.23276e-07
0.000140318
2.2134e-07
0.000140137
2.51488e-07
0.000139949
2.72482e-07
0.000139737
2.98328e-07
0.000139506
3.4211e-07
0.000139311
2.79587e-07
0.000139138
2.47018e-07
0.00013898
2.20132e-07
0.000138775
2.91681e-07
0.000138545
3.42494e-07
0.000138308
3.45511e-07
0.000138046
3.89014e-07
0.000137824
3.21369e-07
0.000137609
3.06521e-07
0.000137404
3.02722e-07
0.000137196
3.05681e-07
0.000136982
3.2165e-07
0.000136819
2.39292e-07
0.000136655
2.3813e-07
0.000136518
1.9858e-07
0.000136406
1.49596e-07
0.000136264
2.00099e-07
0.000136087
2.60204e-07
0.000135919
2.46459e-07
0.000135803
1.66366e-07
0.000135702
1.37343e-07
0.000135562
2.06074e-07
0.000135421
2.22729e-07
0.000135298
1.88703e-07
0.000135177
1.87361e-07
0.000135094
1.13179e-07
0.000135037
6.95922e-08
0.000134914
1.64304e-07
0.00013477
2.0359e-07
0.000134675
1.07188e-07
0.000134519
2.11666e-07
0.00013438
1.91884e-07
0.000134248
1.95007e-07
0.000134098
2.43582e-07
0.000133982
1.85243e-07
0.000133874
1.81122e-07
0.000133827
2.83717e-08
0.000133781
5.32905e-08
0.000133715
1.01671e-07
0.000133632
1.42574e-07
0.000133525
2.08366e-07
0.000133454
1.19157e-07
0.000133403
7.61843e-08
0.000133399
-2.76821e-08
0.000133348
5.19674e-08
0.000133232
1.69862e-07
0.000133196
3.26909e-08
0.000133119
7.8289e-08
0.000132986
2.19873e-07
0.000132959
7.07633e-08
0.000132995
-4.91602e-08
0.00013297
5.05961e-08
0.000132904
1.10479e-07
0.000132818
1.17586e-07
0.000132772
4.39636e-08
0.000132717
7.35728e-08
0.000132668
7.02782e-08
0.000132595
1.09409e-07
0.000132504
1.46949e-07
0.000132482
7.07468e-08
0.000132501
-6.25796e-08
0.000132481
1.94694e-08
0.000132427
1.18435e-07
0.000132416
9.36145e-09
0.000132432
-2.97635e-08
0.000132488
-1.18374e-07
0.000132484
-1.06718e-09
0.000132465
2.37455e-08
0.000132469
2.04496e-09
0.00013244
5.06875e-08
0.000132427
-1.55324e-10
0.000132449
-6.17753e-08
0.000132471
-6.45247e-08
0.000132428
5.22779e-08
0.000132394
2.06284e-08
0.000132385
-3.47022e-09
0.000132343
6.95814e-08
0.000132339
-1.89027e-09
0.000132341
7.3505e-09
0.000132344
5.1968e-09
0.000132302
6.95166e-08
0.000132209
1.62905e-07
0.000132159
7.79585e-08
0.000132138
5.47425e-08
0.0001322
-1.3938e-07
0.000132222
-5.25116e-08
0.000132148
1.00754e-07
0.000132118
5.30726e-08
0.000132126
-1.08494e-08
0.000132169
-6.05297e-08
0.000132143
3.76971e-08
0.00013203
1.77179e-07
0.000132024
-2.6425e-08
0.000132025
-4.90633e-09
0.00013201
6.09109e-08
0.00013211
-1.76477e-07
0.000132067
8.06637e-08
0.00013198
1.6566e-07
0.000132061
-1.49369e-07
0.000132047
3.54488e-08
0.000131971
1.40548e-07
0.000132026
-1.09059e-07
0.000132039
-2.29055e-08
0.000132052
4.92314e-09
0.000132096
-7.49752e-08
0.000132049
7.70841e-08
0.000132058
-2.2257e-08
0.000132064
1.43996e-09
0.000131958
1.94507e-07
0.000132024
-1.33537e-07
0.000132104
-1.46566e-07
0.000132038
9.80734e-08
0.00013202
2.50544e-08
0.000132042
-2.62812e-08
0.000132073
-4.45123e-08
0.000132089
-5.36603e-09
0.000132054
7.83088e-08
0.000132009
7.57266e-08
0.000131954
8.77363e-08
0.000131941
-3.32301e-08
0.000131905
3.33055e-08
0.000131837
1.51986e-07
0.000131863
-5.85596e-08
0.000131814
7.42083e-08
0.00013187
-9.37715e-08
-2.50687e-07
0.000561784
0.000257649
0.00053359
0.00024896
0.000489043
0.000160498
0.000442418
0.000107866
0.000404956
7.43339e-05
0.000376205
5.30249e-05
0.000353846
3.90763e-05
0.000336103
3.01936e-05
0.000321798
2.38996e-05
0.00031
1.97802e-05
0.000300158
1.64179e-05
0.000291787
1.41205e-05
0.00028463
1.19975e-05
0.000278406
1.04992e-05
0.000272983
9.05843e-06
0.000268126
8.17212e-06
0.000263818
7.2508e-06
0.000259917
6.61621e-06
0.000256397
5.99342e-06
0.000253198
5.45149e-06
0.000250268
5.01567e-06
0.000247568
4.65199e-06
0.000245071
4.32265e-06
0.000242771
3.99454e-06
0.000240629
3.73432e-06
0.000238642
3.47093e-06
0.000236799
3.22676e-06
0.000235089
2.99066e-06
0.00023347
2.84598e-06
0.000231954
2.66904e-06
0.000230506
2.57621e-06
0.000229098
2.53392e-06
0.000227714
2.52987e-06
0.000226396
2.43908e-06
0.000225104
2.42848e-06
0.000223856
2.39772e-06
0.000222657
2.34497e-06
0.000221515
2.27355e-06
0.000220453
2.12089e-06
0.000219459
2.00722e-06
0.000218541
1.86825e-06
0.000217699
1.70975e-06
0.000216912
1.60782e-06
0.000216195
1.46716e-06
0.000215542
1.32488e-06
0.000214941
1.21771e-06
0.000214396
1.09976e-06
0.000213894
1.01195e-06
0.00021341
9.78642e-07
0.000212929
9.82514e-07
0.000212465
9.35261e-07
0.000212011
9.07529e-07
0.000211561
8.87065e-07
0.000211124
8.54028e-07
0.000210687
8.55764e-07
0.000210271
8.20351e-07
0.000209885
7.35351e-07
0.00020951
7.10283e-07
0.000209148
6.85137e-07
0.000208794
6.69835e-07
0.000208471
6.03883e-07
0.000208166
5.56658e-07
0.000207856
5.7362e-07
0.000207567
5.35445e-07
0.000207276
5.33827e-07
0.000206993
5.28207e-07
0.000206756
4.42447e-07
0.000206515
4.32556e-07
0.000206266
4.71574e-07
0.000206024
4.63742e-07
0.000205761
5.14382e-07
0.000205502
5.3235e-07
0.000205215
5.85259e-07
0.000204922
6.34999e-07
0.000204662
5.40073e-07
0.000204413
4.97462e-07
0.000204177
4.54774e-07
0.000203897
5.71046e-07
0.000203607
6.33002e-07
0.000203305
6.47426e-07
0.000202976
7.17347e-07
0.00020268
6.1747e-07
0.000202383
6.03724e-07
0.000202109
5.7602e-07
0.000201839
5.76155e-07
0.000201571
5.88915e-07
0.000201353
4.57577e-07
0.000201132
4.60246e-07
0.000200942
3.88241e-07
0.000200769
3.21151e-07
0.00020057
4.00415e-07
0.000200345
4.84728e-07
0.000200134
4.5625e-07
0.000199974
3.26795e-07
0.00019982
2.90936e-07
0.000199633
3.91107e-07
0.00019946
3.98356e-07
0.000199301
3.48461e-07
0.000199142
3.44694e-07
0.000199023
2.27382e-07
0.0001989
1.98392e-07
0.000198715
3.49756e-07
0.000198519
3.98855e-07
0.000198364
2.62283e-07
0.000198162
4.10618e-07
0.000197978
3.74108e-07
0.000197806
3.67406e-07
0.000197627
4.22638e-07
0.00019749
3.21632e-07
0.000197364
3.08574e-07
0.000197271
1.21525e-07
0.00019718
1.48971e-07
0.000197084
1.91854e-07
0.000196991
2.32922e-07
0.000196914
2.85442e-07
0.000196846
1.84476e-07
0.000196777
1.49061e-07
0.000196738
1.45127e-08
0.00019665
1.39754e-07
0.000196517
2.98312e-07
0.000196446
1.0492e-07
0.000196306
2.17929e-07
0.000196152
3.71525e-07
0.000196118
9.85126e-08
0.000196135
-5.79343e-08
0.000196105
7.8447e-08
0.000196009
2.06565e-07
0.000195891
2.37365e-07
0.000195799
1.33253e-07
0.000195724
1.47185e-07
0.000195659
1.39961e-07
0.000195559
2.19286e-07
0.000195482
2.1506e-07
0.00019548
7.05771e-08
0.000195462
-4.26287e-08
0.000195434
5.3378e-08
0.000195385
1.63041e-07
0.000195359
3.38746e-08
0.000195413
-8.18902e-08
0.000195453
-1.61787e-07
0.000195417
4.08666e-08
0.0001954
3.95929e-08
0.000195387
1.6022e-08
0.000195384
5.63604e-08
0.000195376
2.79331e-09
0.000195338
-2.46582e-08
0.000195358
-8.51546e-08
0.00019533
7.774e-08
0.000195275
7.83403e-08
0.000195249
2.31612e-08
0.000195201
1.14018e-07
0.000195214
-2.16621e-08
0.000195216
7.89811e-09
0.000195204
1.91429e-08
0.000195161
1.13788e-07
0.000195059
2.70124e-07
0.000195004
1.28651e-07
0.000194993
6.73847e-08
0.000195021
-1.65689e-07
0.000195009
-3.02413e-08
0.000194942
1.5545e-07
0.000194935
5.77785e-08
0.000194953
-3.11426e-08
0.000194987
-9.03436e-08
0.000194965
5.51359e-08
0.000194837
3.05532e-07
0.000194807
1.90162e-09
0.000194802
-3.57496e-09
0.000194794
7.48276e-08
0.000194888
-2.66811e-07
0.000194855
1.13061e-07
0.000194778
2.43425e-07
0.000194845
-2.14573e-07
0.00019486
2.1069e-08
0.000194778
2.22585e-07
0.000194797
-1.259e-07
0.000194816
-4.36906e-08
0.00019485
-2.96794e-08
0.000194897
-1.20883e-07
0.000194837
1.40326e-07
0.000194846
-3.68642e-08
0.00019486
-1.52111e-08
0.000194781
2.70911e-07
0.000194847
-2.02795e-07
0.000194913
-2.12794e-07
0.00019483
1.80994e-07
0.000194803
5.09483e-08
0.000194835
-6.06858e-08
0.000194861
-6.78792e-08
0.000194891
-3.33184e-08
0.000194884
8.63818e-08
0.000194836
1.26646e-07
0.000194774
1.46685e-07
0.000194712
2.68005e-08
0.000194652
9.45631e-08
0.000194595
2.09464e-07
0.000194611
-7.60469e-08
0.000194579
1.05982e-07
0.000194621
-1.3717e-07
-3.70639e-07
0.000603264
0.000238674
0.000602036
0.000250188
0.000586498
0.000176035
0.000559238
0.000135126
0.000528105
0.000105467
0.000498944
8.21859e-05
0.000472644
6.53769e-05
0.000449763
5.30743e-05
0.000430104
4.35587e-05
0.000413309
3.65756e-05
0.000398927
3.08002e-05
0.000386552
2.64948e-05
0.000375807
2.27425e-05
0.00036641
1.98962e-05
0.000358141
1.73271e-05
0.00035076
1.55529e-05
0.000344197
1.3814e-05
0.000338277
1.25362e-05
0.000332944
1.1326e-05
0.000328095
1.02998e-05
0.000323674
9.43722e-06
0.000319622
8.70387e-06
0.000315887
8.05738e-06
0.000312451
7.42963e-06
0.000309265
6.92071e-06
0.000306315
6.42012e-06
0.00030358
5.96199e-06
0.00030104
5.53042e-06
0.000298652
5.2336e-06
0.000296418
4.90236e-06
0.000294304
4.68962e-06
0.00029228
4.5574e-06
0.000290326
4.48298e-06
0.000288487
4.2778e-06
0.000286714
4.20159e-06
0.000285039
4.07301e-06
0.000283463
3.92038e-06
0.000281984
3.75263e-06
0.000280619
3.48709e-06
0.000279348
3.28094e-06
0.000278184
3.03305e-06
0.000277112
2.78334e-06
0.000276116
2.60567e-06
0.000275204
2.38117e-06
0.000274369
2.16167e-06
0.000273602
1.98607e-06
0.000272903
1.80034e-06
0.000272252
1.66397e-06
0.000271627
1.60477e-06
0.000271014
1.59603e-06
0.000270415
1.53479e-06
0.00026982
1.50267e-06
0.000269227
1.48114e-06
0.000268645
1.43694e-06
0.000268063
1.4384e-06
0.000267505
1.37883e-06
0.000266975
1.26537e-06
0.00026646
1.22565e-06
0.000265962
1.18455e-06
0.000265474
1.15829e-06
0.000265024
1.05321e-06
0.000264596
9.84317e-07
0.000264171
9.9752e-07
0.000263773
9.32519e-07
0.000263376
9.29563e-07
0.000262992
9.11513e-07
0.000262663
7.702e-07
0.000262329
7.66064e-07
0.000262003
7.9745e-07
0.000261688
7.7939e-07
0.000261353
8.48397e-07
0.000261035
8.50946e-07
0.00026069
9.29614e-07
0.000260354
9.71601e-07
0.000260043
8.51595e-07
0.000259728
8.13727e-07
0.000259419
7.63439e-07
0.000259075
9.15853e-07
0.000258735
9.73469e-07
0.000258382
1.00167e-06
0.000258001
1.09802e-06
0.000257642
9.77109e-07
0.000257273
9.7416e-07
0.000256932
9.18412e-07
0.000256605
9.04432e-07
0.000256293
9.02639e-07
0.000256025
7.2622e-07
0.00025575
7.35702e-07
0.000255507
6.31907e-07
0.000255274
5.5478e-07
0.000255017
6.58151e-07
0.00025475
7.51434e-07
0.000254504
7.02115e-07
0.000254299
5.3259e-07
0.000254089
5.02199e-07
0.00025386
6.22766e-07
0.000253654
6.05443e-07
0.000253458
5.47059e-07
0.000253262
5.43224e-07
0.000253104
3.841e-07
0.000252912
3.94203e-07
0.000252668
5.94773e-07
0.000252422
6.44016e-07
0.000252211
4.69894e-07
0.000251978
6.40187e-07
0.000251762
5.89638e-07
0.000251557
5.72982e-07
0.000251361
6.24281e-07
0.000251206
4.75042e-07
0.000251055
4.58014e-07
0.000250956
2.23539e-07
0.000250848
2.64113e-07
0.000250714
3.2492e-07
0.000250593
3.55792e-07
0.000250471
4.08309e-07
0.000250402
2.53277e-07
0.000250354
1.99391e-07
0.000250285
8.25255e-08
0.000250174
2.49223e-07
0.000250021
4.45664e-07
0.000249927
2.03081e-07
0.000249753
3.96897e-07
0.000249556
5.68808e-07
0.0002495
1.54832e-07
0.000249499
-4.55628e-08
0.000249432
1.52988e-07
0.000249307
3.3704e-07
0.000249163
3.82203e-07
0.000249036
2.61515e-07
0.000248944
2.38544e-07
0.000248864
2.19928e-07
0.000248752
3.34857e-07
0.000248698
2.64826e-07
0.000248674
9.19131e-08
0.000248617
1.75256e-08
0.000248597
7.4545e-08
0.000248557
2.00187e-07
0.000248511
7.6192e-08
0.000248564
-1.36599e-07
0.000248597
-1.98895e-07
0.000248561
7.66238e-08
0.000248558
3.94883e-08
0.000248525
4.79021e-08
0.000248517
6.04118e-08
0.00024851
5.83418e-09
0.000248444
3.42701e-08
0.00024846
-1.10194e-07
0.000248447
8.10054e-08
0.000248391
1.26377e-07
0.000248358
5.24046e-08
0.000248301
1.71555e-07
0.000248304
-2.12142e-08
0.000248297
1.7636e-08
0.000248284
3.29025e-08
0.000248217
1.81162e-07
0.00024812
3.72113e-07
0.000248084
1.62701e-07
0.000248048
9.95084e-08
0.000248055
-1.73836e-07
0.000248026
6.58445e-10
0.000247964
2.08838e-07
0.000247981
4.18638e-08
0.000248012
-6.32039e-08
0.000248024
-9.99673e-08
0.000247992
8.30924e-08
0.000247884
4.12652e-07
0.000247857
2.52651e-08
0.000247839
1.49967e-08
0.000247852
6.51818e-08
0.000247935
-3.48375e-07
0.000247887
1.59813e-07
0.00024781
3.21135e-07
0.000247863
-2.63135e-07
0.000247879
6.05125e-09
0.000247814
2.90757e-07
0.00024784
-1.50833e-07
0.000247848
-5.26705e-08
0.000247879
-5.92509e-08
0.000247915
-1.55824e-07
0.000247861
1.95852e-07
0.000247883
-5.80829e-08
0.000247864
7.22886e-09
0.000247845
2.92489e-07
0.000247915
-2.74023e-07
0.000247953
-2.5004e-07
0.000247876
2.58959e-07
0.000247837
8.98789e-08
0.000247891
-1.09481e-07
0.000247903
-7.86059e-08
0.000247925
-5.7305e-08
0.000247939
7.29631e-08
0.000247882
1.83647e-07
0.000247816
2.11879e-07
0.000247732
1.10877e-07
0.000247649
1.74693e-07
0.000247615
2.43837e-07
0.00024759
-4.98688e-08
0.000247589
1.07134e-07
0.000247648
-1.97244e-07
-4.30915e-07
0.000634235
0.00021684
0.000644033
0.000240391
0.000640921
0.000179147
0.000631279
0.000144767
0.000614942
0.000121804
0.000595023
0.000102105
0.000573643
8.67573e-05
0.000552295
7.44217e-05
0.000531758
6.40955e-05
0.000512714
5.56195e-05
0.000495377
4.81376e-05
0.000479854
4.20172e-05
0.000465969
3.66271e-05
0.000453583
3.22828e-05
0.000442516
2.83936e-05
0.000432573
2.54954e-05
0.000423662
2.27251e-05
0.000415603
2.05952e-05
0.000408315
1.86138e-05
0.000401674
1.69407e-05
0.000395621
1.54904e-05
0.000390073
1.42511e-05
0.000384965
1.31662e-05
0.000380263
1.21315e-05
0.000375911
1.12723e-05
0.000371883
1.04478e-05
0.000368147
9.69833e-06
0.000364675
9.00196e-06
0.000361424
8.48465e-06
0.000358384
7.94189e-06
0.000355524
7.54934e-06
0.000352817
7.26462e-06
0.000350236
7.06326e-06
0.000347825
6.68833e-06
0.00034553
6.4962e-06
0.000343395
6.20825e-06
0.000341414
5.89983e-06
0.000339577
5.58916e-06
0.000337892
5.17123e-06
0.00033633
4.84242e-06
0.000334906
4.45594e-06
0.00033359
4.09833e-06
0.000332371
3.82366e-06
0.000331252
3.50046e-06
0.00033022
3.1929e-06
0.000329274
2.9328e-06
0.000328405
2.66913e-06
0.000327588
2.48082e-06
0.000326809
2.38413e-06
0.000326053
2.3525e-06
0.000325307
2.28085e-06
0.000324561
2.24911e-06
0.000323814
2.22783e-06
0.000323075
2.17551e-06
0.000322333
2.18019e-06
0.000321618
2.09413e-06
0.000320929
1.95356e-06
0.000320259
1.89524e-06
0.00031961
1.83412e-06
0.000318975
1.79321e-06
0.000318384
1.64343e-06
0.000317823
1.54611e-06
0.000317275
1.54522e-06
0.000316762
1.44652e-06
0.000316257
1.43553e-06
0.000315771
1.39863e-06
0.000315344
1.1966e-06
0.000314915
1.19512e-06
0.00031451
1.20275e-06
0.000314123
1.167e-06
0.000313722
1.24916e-06
0.000313349
1.22457e-06
0.000312954
1.32418e-06
0.000312579
1.34759e-06
0.000312219
1.21071e-06
0.000311845
1.1889e-06
0.000311469
1.13873e-06
0.000311067
1.31722e-06
0.000310682
1.35867e-06
0.000310278
1.40519e-06
0.00030985
1.52562e-06
0.000309433
1.39374e-06
0.000308995
1.41167e-06
0.000308583
1.33031e-06
0.000308198
1.28925e-06
0.000307839
1.26091e-06
0.000307515
1.05031e-06
0.000307184
1.06755e-06
0.000306885
9.30534e-07
0.000306583
8.55838e-07
0.000306262
9.79901e-07
0.000305952
1.06136e-06
0.00030567
9.83175e-07
0.000305413
7.89374e-07
0.000305139
7.756e-07
0.000304862
8.98289e-07
0.000304621
8.48431e-07
0.000304383
7.85696e-07
0.00030415
7.739e-07
0.000303946
5.83997e-07
0.000303683
6.61399e-07
0.000303385
8.94347e-07
0.000303087
9.40821e-07
0.000302813
7.43971e-07
0.000302545
9.06083e-07
0.000302291
8.4016e-07
0.000302051
8.12944e-07
0.000301844
8.31941e-07
0.000301687
6.33167e-07
0.000301524
6.21568e-07
0.000301418
3.2872e-07
0.000301297
3.89091e-07
0.0003011
5.17443e-07
0.000300883
5.70859e-07
0.000300743
5.46852e-07
0.000300712
2.82478e-07
0.00030065
2.63552e-07
0.00030056
1.76327e-07
0.000300438
3.72281e-07
0.000300275
6.05049e-07
0.000300157
3.2314e-07
0.00029999
5.63313e-07
0.000299788
7.68683e-07
0.000299686
2.49887e-07
0.000299631
1.37087e-08
0.000299484
2.97629e-07
0.000299311
5.07612e-07
0.000299143
5.51677e-07
0.00029899
4.12187e-07
0.000298871
3.5642e-07
0.000298775
3.21117e-07
0.000298669
4.48738e-07
0.000298576
3.49452e-07
0.000298568
9.70993e-08
0.000298491
9.60619e-08
0.000298438
1.33408e-07
0.000298424
2.10839e-07
0.000298359
1.40151e-07
0.000298361
-1.36917e-07
0.000298385
-2.2534e-07
0.000298391
7.6205e-08
0.000298429
1.25367e-09
0.000298371
1.06866e-07
0.000298314
1.19795e-07
0.000298338
-2.21572e-08
0.000298272
1.00853e-07
0.00029823
-6.70126e-08
0.000298257
5.30336e-08
0.000298233
1.54717e-07
0.000298178
1.0852e-07
0.000298127
2.18605e-07
0.000298076
2.33386e-08
0.000298045
5.09017e-08
0.000298047
3.16738e-08
0.000297977
2.51989e-07
0.000297901
4.51814e-07
0.000297869
1.90792e-07
0.000297815
1.5496e-07
0.000297789
-1.4669e-07
0.000297744
5.45609e-08
0.000297689
2.54155e-07
0.000297703
2.4992e-08
0.000297758
-1.19573e-07
0.000297723
-6.24914e-08
0.000297658
1.45074e-07
0.000297658
4.11928e-07
0.000297621
6.28402e-08
0.00029757
6.17893e-08
0.000297574
6.69668e-08
0.000297629
-3.99401e-07
0.000297634
1.54779e-07
0.00029757
3.86336e-07
0.000297594
-2.86536e-07
0.000297628
-2.69074e-08
0.000297602
3.16634e-07
0.00029755
-9.66152e-08
0.000297555
-5.99519e-08
0.000297605
-1.09996e-07
0.000297587
-1.37616e-07
0.000297614
1.71673e-07
0.000297656
-1.05316e-07
0.000297583
7.60808e-08
0.000297593
2.79246e-07
0.000297682
-3.6555e-07
0.00029767
-2.37567e-07
0.000297589
3.39305e-07
0.000297616
6.27623e-08
0.00029768
-1.7715e-07
0.00029764
-3.58697e-08
0.000297636
-5.04623e-08
0.000297673
3.60771e-08
0.000297649
2.10905e-07
0.000297567
2.90698e-07
0.000297445
2.30574e-07
0.000297377
2.45831e-07
0.000297356
2.65311e-07
0.000297287
1.69714e-08
0.000297261
1.33173e-07
0.000297326
-2.63381e-07
-4.95629e-07
0.000662772
0.000195933
0.000676985
0.000226178
0.000678746
0.000177386
0.000676751
0.000146761
0.000670922
0.000127633
0.000661392
0.000111636
0.000649239
9.89102e-05
0.000635028
8.86331e-05
0.000619304
7.982e-05
0.000602858
7.20652e-05
0.000586262
6.47338e-05
0.000570179
5.81006e-05
0.000554904
5.1902e-05
0.000540671
4.65153e-05
0.000527533
4.15315e-05
0.000515461
3.75674e-05
0.00050444
3.3746e-05
0.000494355
3.06797e-05
0.000485143
2.78253e-05
0.000476687
2.53968e-05
0.000468943
2.3234e-05
0.000461821
2.13729e-05
0.000455246
1.97414e-05
0.000449178
1.81988e-05
0.000443566
1.68846e-05
0.000438361
1.56522e-05
0.000433525
1.45341e-05
0.000429025
1.35013e-05
0.000424819
1.26911e-05
0.000420884
1.18761e-05
0.000417192
1.12406e-05
0.000413727
1.07294e-05
0.000410451
1.0338e-05
0.000407406
9.73192e-06
0.000404539
9.36239e-06
0.000401892
8.85582e-06
0.000399461
8.32957e-06
0.000397228
7.82267e-06
0.000395188
7.21146e-06
0.000393309
6.72424e-06
0.000391601
6.16472e-06
0.000390017
5.68423e-06
0.000388553
5.28867e-06
0.000387206
4.85022e-06
0.000385957
4.44407e-06
0.000384807
4.08425e-06
0.000383741
3.73541e-06
0.000382735
3.48826e-06
0.000381783
3.33634e-06
0.000380868
3.26873e-06
0.000379961
3.18822e-06
0.000379049
3.16063e-06
0.000378138
3.14002e-06
0.000377229
3.08525e-06
0.000376313
3.09709e-06
0.000375424
2.98446e-06
0.000374557
2.82075e-06
0.000373714
2.73907e-06
0.000372896
2.65352e-06
0.000372099
2.59141e-06
0.000371351
2.39054e-06
0.000370643
2.25423e-06
0.00036996
2.22677e-06
0.000369321
2.08522e-06
0.0003687
2.05469e-06
0.000368106
1.99221e-06
0.000367573
1.72776e-06
0.000367045
1.72267e-06
0.000366554
1.69359e-06
0.000366089
1.63194e-06
0.00036562
1.71813e-06
0.000365188
1.65682e-06
0.000364747
1.76482e-06
0.000364331
1.76387e-06
0.00036392
1.62225e-06
0.00036349
1.61944e-06
0.000363052
1.57738e-06
0.000362599
1.77011e-06
0.000362169
1.78958e-06
0.000361715
1.85975e-06
0.000361243
1.99762e-06
0.000360772
1.86548e-06
0.000360268
1.91566e-06
0.000359781
1.8186e-06
0.000359337
1.73543e-06
0.000358927
1.6723e-06
0.000358537
1.44083e-06
0.000358143
1.46204e-06
0.000357779
1.2953e-06
0.000357401
1.23463e-06
0.000357009
1.3725e-06
0.000356651
1.41957e-06
0.000356325
1.30923e-06
0.000356003
1.11221e-06
0.000355659
1.12169e-06
0.000355334
1.22527e-06
0.000355052
1.13189e-06
0.00035477
1.07023e-06
0.000354498
1.04806e-06
0.00035424
8.41764e-07
0.000353901
1.00266e-06
0.000353547
1.24939e-06
0.000353182
1.30503e-06
0.00035283
1.09461e-06
0.00035252
1.21473e-06
0.000352213
1.1455e-06
0.000351929
1.09658e-06
0.000351703
1.05992e-06
0.00035155
7.84599e-07
0.000351403
7.67816e-07
0.000351295
4.41381e-07
0.000351166
5.24648e-07
0.000350923
7.59838e-07
0.000350632
8.63911e-07
0.000350447
7.33101e-07
0.000350394
3.38619e-07
0.000350302
3.59552e-07
0.000350177
2.9967e-07
0.000350048
4.98749e-07
0.0003499
7.48609e-07
0.00034978
4.47853e-07
0.000349601
7.46776e-07
0.000349371
9.98984e-07
0.000349209
4.12828e-07
0.000349098
1.36023e-07
0.000348896
5.10628e-07
0.000348681
7.29246e-07
0.000348479
7.53571e-07
0.000348268
6.22344e-07
0.000348131
4.90971e-07
0.000347995
4.57787e-07
0.000347924
5.22155e-07
0.000347841
4.28374e-07
0.000347772
1.65142e-07
0.000347676
1.93234e-07
0.000347603
2.0759e-07
0.000347605
2.06147e-07
0.000347539
2.03919e-07
0.000347532
-1.29808e-07
0.000347511
-2.08635e-07
0.000347509
7.65292e-08
0.000347535
-2.77934e-08
0.000347504
1.36945e-07
0.000347498
1.22099e-07
0.000347475
-4.63172e-09
0.000347424
1.46461e-07
0.000347355
-7.64444e-09
0.000347326
7.11877e-08
0.000347357
1.15571e-07
0.000347315
1.44892e-07
0.000347307
2.2778e-07
0.000347201
1.30781e-07
0.000347139
1.15844e-07
0.000347156
1.45089e-08
0.000347056
3.50744e-07
0.000347022
4.90407e-07
0.000347034
1.76658e-07
0.000346943
2.44988e-07
0.000346834
-4.05155e-08
0.000346786
1.0157e-07
0.00034676
2.73537e-07
0.000346804
-1.97265e-08
0.000346807
-1.24529e-07
0.000346722
2.41248e-08
0.000346742
1.22382e-07
0.000346743
4.10415e-07
0.000346644
1.61727e-07
0.00034665
5.6997e-08
0.00034667
4.95156e-08
0.000346659
-3.86231e-07
0.00034666
1.54947e-07
0.000346677
3.70862e-07
0.000346674
-2.802e-07
0.000346625
2.30334e-08
0.000346649
2.94304e-07
0.000346594
-4.00782e-08
0.000346538
-5.27738e-09
0.000346629
-1.99931e-07
0.000346611
-1.18382e-07
0.000346643
1.41964e-07
0.000346704
-1.65208e-07
0.000346629
1.53436e-07
0.000346673
2.37637e-07
0.000346812
-5.05801e-07
0.000346762
-1.87521e-07
0.000346618
4.83904e-07
0.000346671
1.09449e-08
0.000346752
-2.54628e-07
0.000346691
2.73411e-08
0.000346673
-3.32629e-08
0.000346714
-5.49636e-09
0.000346714
2.11929e-07
0.000346605
3.99477e-07
0.000346459
3.75864e-07
0.00034639
3.11247e-07
0.000346403
2.50925e-07
0.000346336
8.5148e-08
0.000346268
2.02396e-07
0.000346332
-3.28815e-07
-5.42574e-07
0.000692288
0.000176394
0.000707648
0.000210818
0.00071208
0.000172954
0.000712589
0.000146252
0.000711325
0.000128897
0.000708044
0.000114916
0.000702764
0.00010419
0.00069561
9.57877e-05
0.00068674
8.8689e-05
0.000676274
8.25309e-05
0.000664386
7.66222e-05
0.000651539
7.09476e-05
0.000638095
6.53458e-05
0.000624535
6.00751e-05
0.00061119
5.48763e-05
0.000598316
5.04419e-05
0.000586106
4.59554e-05
0.000574613
4.21722e-05
0.000563893
3.8546e-05
0.000553885
3.54038e-05
0.0005446
3.25199e-05
0.000535983
2.99895e-05
0.000527972
2.77523e-05
0.000520532
2.56389e-05
0.000513628
2.37881e-05
0.000507201
2.20796e-05
0.000501207
2.05276e-05
0.000495613
1.90949e-05
0.000490379
1.79255e-05
0.000485477