/*--------------------------------*- C++ -*----------------------------------*\
  =========                 |
  \\      /  F ield         | OpenFOAM: The Open Source CFD Toolbox
   \\    /   O peration     | Website:  https://openfoam.org
    \\  /    A nd           | Version:  12
     \\/     M anipulation  |
\*---------------------------------------------------------------------------*/
FoamFile
{
    format      ascii;
    class       volVectorField;
    location    "100";
    object      U;
}
// * * * * * * * * * * * * * * * * * * * * * * * * * * * * * * * * * * * * * //

dimensions      [0 1 -1 0 0 0 0];

internalField   nonuniform List<vector> 
20000
(
(0.696539 -0.0953536 0)
(0.391305 -0.00674812 0)
(0.255373 0.000258923 0)
(0.20155 0.000161904 0)
(0.180035 0.000140805 0)
(0.165387 8.11737e-05 0)
(0.157223 1.26908e-05 0)
(0.150322 -6.76841e-06 0)
(0.146633 -1.89511e-05 0)
(0.142389 -8.76469e-06 0)
(0.139938 -1.29351e-05 0)
(0.136909 -8.80945e-07 0)
(0.134963 -5.71536e-06 0)
(0.1328 -2.96026e-06 0)
(0.131237 -7.98225e-06 0)
(0.129749 -4.11205e-06 0)
(0.128366 -3.80712e-06 0)
(0.127212 -1.259e-06 0)
(0.125963 2.94137e-08 0)
(0.125011 -4.67182e-07 0)
(0.123957 6.11086e-07 0)
(0.12312 1.87729e-06 0)
(0.122172 2.61583e-06 0)
(0.121416 3.0244e-06 0)
(0.120594 3.45915e-06 0)
(0.119908 3.94057e-06 0)
(0.119185 3.65509e-06 0)
(0.118595 2.83599e-06 0)
(0.117969 3.04256e-06 0)
(0.117418 2.65259e-06 0)
(0.116858 3.12438e-06 0)
(0.11632 4.4296e-06 0)
(0.115718 6.47885e-06 0)
(0.115125 7.46117e-06 0)
(0.114541 9.40424e-06 0)
(0.113883 1.20522e-05 0)
(0.113262 1.46882e-05 0)
(0.112563 1.66241e-05 0)
(0.111945 1.5649e-05 0)
(0.111319 1.67038e-05 0)
(0.110753 1.71698e-05 0)
(0.110204 1.48222e-05 0)
(0.10971 1.49073e-05 0)
(0.109226 1.3228e-05 0)
(0.108825 1.13998e-05 0)
(0.108434 1.0051e-05 0)
(0.108096 8.6361e-06 0)
(0.107788 8.75729e-06 0)
(0.107501 8.30472e-06 0)
(0.107195 8.95611e-06 0)
(0.10691 8.17833e-06 0)
(0.106638 7.11111e-06 0)
(0.106386 6.12402e-06 0)
(0.106134 5.6095e-06 0)
(0.105899 6.56551e-06 0)
(0.105649 6.63629e-06 0)
(0.105456 3.64472e-06 0)
(0.105257 3.67285e-06 0)
(0.105084 3.78574e-06 0)
(0.104898 3.1214e-06 0)
(0.104747 2.12646e-06 0)
(0.104618 5.54119e-07 0)
(0.104475 1.5783e-06 0)
(0.104327 1.37915e-06 0)
(0.104215 6.07674e-07 0)
(0.104066 9.67296e-07 0)
(0.103954 1.18271e-06 0)
(0.103873 -1.01592e-06 0)
(0.103746 5.40279e-07 0)
(0.103633 9.75643e-07 0)
(0.103503 1.91505e-06 0)
(0.103345 3.20147e-06 0)
(0.103197 3.22414e-06 0)
(0.10297 6.5077e-06 0)
(0.102786 3.42598e-06 0)
(0.102624 2.30896e-06 0)
(0.102513 2.22029e-06 0)
(0.102389 4.35955e-06 0)
(0.102155 7.22661e-06 0)
(0.101991 6.32596e-06 0)
(0.101709 8.04644e-06 0)
(0.101508 5.29258e-06 0)
(0.101321 4.7958e-06 0)
(0.101135 6.9563e-06 0)
(0.100978 6.80156e-06 0)
(0.100732 7.77805e-06 0)
(0.100594 4.72664e-06 0)
(0.100439 4.06644e-06 0)
(0.100297 3.25813e-06 0)
(0.100227 5.06964e-07 0)
(0.100122 2.56299e-06 0)
(0.099981 5.39033e-06 0)
(0.0997928 6.3783e-06 0)
(0.0996679 4.13118e-06 0)
(0.099584 1.91261e-06 0)
(0.0994856 4.54823e-06 0)
(0.0993396 4.96654e-06 0)
(0.0992354 3.7763e-06 0)
(0.0991231 5.1837e-06 0)
(0.099053 2.59646e-06 0)
(0.0990476 -2.49111e-06 0)
(0.098986 4.86895e-07 0)
(0.0988617 -3.03148e-07 0)
(0.0987735 -4.05821e-06 0)
(0.0986744 3.89557e-06 0)
(0.0984825 2.30217e-06 0)
(0.09839 1.04826e-05 0)
(0.0982113 1.63261e-05 0)
(0.0980735 3.52096e-06 0)
(0.0980196 -6.38046e-06 0)
(0.0980134 -7.40975e-06 0)
(0.0979307 7.65715e-06 0)
(0.0978846 1.13743e-05 0)
(0.0977936 7.70888e-06 0)
(0.0976603 7.58099e-06 0)
(0.097607 -2.97999e-06 0)
(0.0975696 -4.01741e-06 0)
(0.0975905 -5.9496e-06 0)
(0.0975475 -5.29325e-06 0)
(0.0974696 4.85954e-06 0)
(0.097399 3.83408e-06 0)
(0.0973324 7.91873e-06 0)
(0.0971683 1.0579e-05 0)
(0.0971604 4.46738e-07 0)
(0.0972243 -5.95641e-06 0)
(0.0972796 -1.52193e-06 0)
(0.0972405 -1.09525e-06 0)
(0.0971742 2.07394e-06 0)
(0.0971134 3.07873e-06 0)
(0.0970234 6.63076e-06 0)
(0.0969637 4.57937e-06 0)
(0.0968674 1.07562e-06 0)
(0.0967721 4.14972e-06 0)
(0.0968196 1.54896e-06 0)
(0.0968321 -5.50998e-06 0)
(0.0967543 9.31377e-07 0)
(0.0966746 9.6434e-06 0)
(0.096665 -1.76736e-06 0)
(0.0967278 -8.65317e-06 0)
(0.0968076 -6.5754e-06 0)
(0.0968102 -4.26979e-06 0)
(0.096776 -5.75744e-07 0)
(0.0968294 2.13717e-06 0)
(0.0967874 2.30369e-06 0)
(0.09677 -2.67674e-06 0)
(0.0968047 -3.52118e-06 0)
(0.0967991 -4.48701e-06 0)
(0.096778 1.5377e-06 0)
(0.0967656 -1.21385e-06 0)
(0.0967139 2.15483e-06 0)
(0.0966721 9.07478e-06 0)
(0.0966491 1.43616e-06 0)
(0.0967007 1.2841e-06 0)
(0.0966822 -1.8941e-06 0)
(0.0966843 2.03639e-06 0)
(0.0965852 1.44134e-05 0)
(0.0964907 2.53349e-06 0)
(0.0964763 -2.5465e-06 0)
(0.096554 -1.61545e-05 0)
(0.096598 -3.32099e-06 0)
(0.0965624 1.0327e-05 0)
(0.0964575 4.28326e-06 0)
(0.0964375 1.81774e-06 0)
(0.0964798 -5.91088e-06 0)
(0.0965145 -2.1056e-07 0)
(0.0964253 6.58312e-06 0)
(0.0963343 -5.81187e-06 0)
(0.0964096 -5.72571e-06 0)
(0.0963436 1.99115e-06 0)
(0.0964255 -6.88458e-06 0)
(0.0964728 4.53245e-06 0)
(0.096391 4.56108e-06 0)
(0.0964038 -1.03447e-05 0)
(0.0964683 5.33855e-06 0)
(0.0963662 8.88036e-06 0)
(0.096384 -5.42174e-06 0)
(0.0964497 -1.96965e-06 0)
(0.0964146 -1.10649e-06 0)
(0.0965002 -3.52256e-06 0)
(0.0964825 5.17062e-06 0)
(0.0964247 1.06414e-06 0)
(0.0964693 2.83275e-06 0)
(0.0963649 1.02421e-05 0)
(0.096302 -4.89674e-06 0)
(0.0964414 -1.07514e-06 0)
(0.0964103 6.04432e-06 0)
(0.0963411 -2.55133e-06 0)
(0.0963645 -2.33003e-06 0)
(0.0963972 -2.51628e-06 0)
(0.096474 -1.77095e-06 0)
(0.0964444 -5.41964e-07 0)
(0.0963812 3.59893e-06 0)
(0.0962958 3.62632e-06 0)
(0.0963076 -5.99218e-06 0)
(0.0962954 2.85678e-06 0)
(0.096213 8.06444e-06 0)
(0.0962504 -4.68019e-06 0)
(0.0962208 3.93814e-06 0)
(0.0961681 -3.76333e-06 0)
(0.0964287 -1.18483e-05 0)
(0.971312 0.0731438 0)
(0.832748 0.0464087 0)
(0.671112 0.0180238 0)
(0.562198 0.00764568 0)
(0.500061 0.00404446 0)
(0.45817 0.00250764 0)
(0.431041 0.00166121 0)
(0.409453 0.00122113 0)
(0.394396 0.000927045 0)
(0.380822 0.000774155 0)
(0.370837 0.00063581 0)
(0.361274 0.000566764 0)
(0.353963 0.000473491 0)
(0.347021 0.000420056 0)
(0.341409 0.000352251 0)
(0.336297 0.000325089 0)
(0.331652 0.0002879 0)
(0.327659 0.000269147 0)
(0.323715 0.000246658 0)
(0.320469 0.000224262 0)
(0.317169 0.000209282 0)
(0.314412 0.000197703 0)
(0.311542 0.000186098 0)
(0.309153 0.000173605 0)
(0.306692 0.000163986 0)
(0.304586 0.000153867 0)
(0.302451 0.000143278 0)
(0.300648 0.000131777 0)
(0.298798 0.000127034 0)
(0.297154 0.000119195 0)
(0.295518 0.000117328 0)
(0.293975 0.000119606 0)
(0.292345 0.000124864 0)
(0.290771 0.000123659 0)
(0.289253 0.000128456 0)
(0.28764 0.000133604 0)
(0.286146 0.000137131 0)
(0.28456 0.000137468 0)
(0.283154 0.000128719 0)
(0.281752 0.000125181 0)
(0.280498 0.000118715 0)
(0.279301 0.000106728 0)
(0.27821 0.000101933 0)
(0.277167 9.19046e-05 0)
(0.276274 8.2045e-05 0)
(0.275417 7.50218e-05 0)
(0.27466 6.72231e-05 0)
(0.273967 6.25853e-05 0)
(0.273327 5.97761e-05 0)
(0.272659 6.09516e-05 0)
(0.272033 5.68188e-05 0)
(0.271421 5.3347e-05 0)
(0.270844 5.05278e-05 0)
(0.270256 4.83346e-05 0)
(0.269711 4.99351e-05 0)
(0.269137 4.82178e-05 0)
(0.268674 3.88123e-05 0)
(0.268179 3.76589e-05 0)
(0.267755 3.71368e-05 0)
(0.267295 3.48735e-05 0)
(0.266911 2.99114e-05 0)
(0.266558 2.59063e-05 0)
(0.266186 2.9157e-05 0)
(0.265807 2.67121e-05 0)
(0.265505 2.57009e-05 0)
(0.265116 2.60751e-05 0)
(0.264826 2.21344e-05 0)
(0.26459 1.87342e-05 0)
(0.264253 2.43156e-05 0)
(0.263976 2.49421e-05 0)
(0.263644 2.93636e-05 0)
(0.263289 3.2827e-05 0)
(0.26295 3.55921e-05 0)
(0.262469 4.39351e-05 0)
(0.262099 3.33663e-05 0)
(0.261724 2.80546e-05 0)
(0.261451 2.52381e-05 0)
(0.26114 3.54866e-05 0)
(0.260665 4.41351e-05 0)
(0.260314 4.27887e-05 0)
(0.259755 4.84737e-05 0)
(0.259336 3.91106e-05 0)
(0.258922 3.76939e-05 0)
(0.258512 3.90968e-05 0)
(0.258181 3.9152e-05 0)
(0.257696 4.26255e-05 0)
(0.257408 3.09547e-05 0)
(0.257084 2.90205e-05 0)
(0.256781 2.3849e-05 0)
(0.256597 1.54736e-05 0)
(0.256337 2.27179e-05 0)
(0.25604 3.22839e-05 0)
(0.25567 3.40333e-05 0)
(0.255414 2.42113e-05 0)
(0.255222 1.71879e-05 0)
(0.254992 2.61411e-05 0)
(0.254702 2.58151e-05 0)
(0.254503 2.00801e-05 0)
(0.254262 2.38309e-05 0)
(0.254104 1.42946e-05 0)
(0.254026 3.97106e-06 0)
(0.25382 1.79731e-05 0)
(0.253544 1.84355e-05 0)
(0.253306 6.13901e-06 0)
(0.253084 3.0509e-05 0)
(0.252696 2.41807e-05 0)
(0.252504 3.77937e-05 0)
(0.252176 5.45323e-05 0)
(0.251947 2.09608e-05 0)
(0.251824 -3.41774e-06 0)
(0.251748 -5.76082e-06 0)
(0.251482 2.53272e-05 0)
(0.251417 3.03598e-05 0)
(0.251284 2.3594e-05 0)
(0.2511 2.59297e-05 0)
(0.25106 2.03474e-06 0)
(0.250942 -2.46391e-06 0)
(0.250912 -8.13258e-06 0)
(0.250792 -4.00495e-06 0)
(0.250617 1.99689e-05 0)
(0.250471 1.65987e-05 0)
(0.250326 3.19694e-05 0)
(0.249944 3.5513e-05 0)
(0.250006 -1.34322e-06 0)
(0.250065 -1.85084e-05 0)
(0.250099 -3.27185e-07 0)
(0.25005 7.41514e-06 0)
(0.249871 1.63071e-05 0)
(0.249729 1.53926e-05 0)
(0.249557 2.2832e-05 0)
(0.249458 1.77447e-05 0)
(0.249291 1.50373e-05 0)
(0.24906 1.28802e-05 0)
(0.249175 1.09157e-06 0)
(0.249234 -8.73696e-06 0)
(0.249 7.43549e-06 0)
(0.248976 2.41855e-05 0)
(0.248981 -8.43578e-06 0)
(0.249008 -2.40656e-05 0)
(0.249129 -1.95976e-05 0)
(0.249114 -4.7736e-06 0)
(0.249036 -1.10138e-06 0)
(0.249103 2.32963e-06 0)
(0.249092 7.80079e-06 0)
(0.249037 -6.09556e-06 0)
(0.249058 -7.02409e-06 0)
(0.249044 -7.23757e-06 0)
(0.249016 5.63e-06 0)
(0.248963 3.99192e-06 0)
(0.248825 9.05383e-06 0)
(0.24881 2.325e-05 0)
(0.248715 2.92658e-06 0)
(0.248799 3.05934e-06 0)
(0.248775 -6.75449e-07 0)
(0.248802 6.70032e-06 0)
(0.24862 3.98393e-05 0)
(0.248465 9.93679e-06 0)
(0.248472 -5.88134e-06 0)
(0.248581 -3.57081e-05 0)
(0.248532 -6.29776e-06 0)
(0.248492 2.68754e-05 0)
(0.248341 1.43912e-05 0)
(0.248348 4.46539e-06 0)
(0.248395 -1.53551e-05 0)
(0.248472 2.65256e-07 0)
(0.248359 2.71248e-05 0)
(0.248109 -1.23704e-05 0)
(0.248215 -1.35618e-05 0)
(0.248125 4.10212e-06 0)
(0.248309 -2.65219e-05 0)
(0.248317 1.06582e-05 0)
(0.248259 1.71927e-05 0)
(0.248222 -2.75217e-05 0)
(0.248334 1.08265e-05 0)
(0.248204 2.70675e-05 0)
(0.248193 -1.42427e-05 0)
(0.248271 -5.50589e-06 0)
(0.248238 -4.98795e-06 0)
(0.248427 -1.675e-05 0)
(0.248342 1.76171e-05 0)
(0.248269 5.10992e-06 0)
(0.248332 6.14844e-06 0)
(0.248261 3.39482e-05 0)
(0.248101 -1.49443e-05 0)
(0.248355 -1.00181e-05 0)
(0.248255 2.11939e-05 0)
(0.24812 -1.73146e-06 0)
(0.248186 -6.49549e-06 0)
(0.248224 -9.94843e-06 0)
(0.248329 -8.23402e-06 0)
(0.248369 -3.36421e-07 0)
(0.248255 1.30884e-05 0)
(0.248161 1.60322e-05 0)
(0.248121 -8.48762e-06 0)
(0.247958 1.12206e-05 0)
(0.247892 2.29509e-05 0)
(0.24796 -1.31327e-05 0)
(0.247877 1.57487e-05 0)
(0.247789 -1.6083e-05 0)
(0.248162 -4.32158e-05 0)
(1.0082 0.0653113 0)
(0.990934 0.0518103 0)
(0.926721 0.0302174 0)
(0.831662 0.0177479 0)
(0.75551 0.0112791 0)
(0.697254 0.00758549 0)
(0.65256 0.00534573 0)
(0.616926 0.00402077 0)
(0.588936 0.00312211 0)
(0.565544 0.00257568 0)
(0.546646 0.0021255 0)
(0.530206 0.00184015 0)
(0.516621 0.00155508 0)
(0.504538 0.0013648 0)
(0.494283 0.001171 0)
(0.485096 0.00106269 0)
(0.476845 0.000941745 0)
(0.469645 0.000865449 0)
(0.462843 0.000785713 0)
(0.457023 0.000715069 0)
(0.451366 0.000660903 0)
(0.446506 0.000615591 0)
(0.441686 0.000574207 0)
(0.437542 0.000531989 0)
(0.433441 0.000498866 0)
(0.429847 0.000464454 0)
(0.426316 0.000431991 0)
(0.423239 0.000399922 0)
(0.420181 0.000382086 0)
(0.417433 0.00035861 0)
(0.414744 0.000348361 0)
(0.412241 0.000347 0)
(0.409685 0.000350851 0)
(0.407267 0.000340565 0)
(0.404961 0.000344308 0)
(0.402619 0.000345056 0)
(0.400483 0.000342787 0)
(0.398312 0.000335363 0)
(0.396387 0.000312855 0)
(0.394499 0.000298571 0)
(0.392815 0.000278724 0)
(0.391233 0.000253864 0)
(0.389781 0.000239717 0)
(0.388416 0.000216963 0)
(0.387214 0.000195561 0)
(0.386078 0.000179658 0)
(0.385059 0.000162006 0)
(0.384126 0.000149782 0)
(0.383259 0.000143903 0)
(0.382379 0.000144582 0)
(0.381544 0.000136821 0)
(0.380715 0.00013127 0)
(0.379917 0.000127068 0)
(0.379099 0.000122532 0)
(0.378335 0.000123494 0)
(0.377531 0.000118177 0)
(0.376861 0.000102738 0)
(0.376136 9.95787e-05 0)
(0.375512 9.73249e-05 0)
(0.37483 9.28809e-05 0)
(0.374248 8.19242e-05 0)
(0.373695 7.5866e-05 0)
(0.373137 8.06608e-05 0)
(0.372573 7.42086e-05 0)
(0.372103 7.35967e-05 0)
(0.371524 7.27797e-05 0)
(0.371082 6.08192e-05 0)
(0.370699 5.86569e-05 0)
(0.370199 6.71156e-05 0)
(0.369808 6.69325e-05 0)
(0.369326 7.56075e-05 0)
(0.368859 7.96703e-05 0)
(0.368407 8.73797e-05 0)
(0.367811 9.82262e-05 0)
(0.367371 8.00567e-05 0)
(0.366868 7.13128e-05 0)
(0.366479 6.57113e-05 0)
(0.366031 8.57072e-05 0)
(0.365463 9.77679e-05 0)
(0.365016 9.8296e-05 0)
(0.364365 0.000108638 0)
(0.363846 9.19738e-05 0)
(0.363303 9.03115e-05 0)
(0.362766 8.76833e-05 0)
(0.362343 8.79227e-05 0)
(0.361774 9.17922e-05 0)
(0.361406 6.99003e-05 0)
(0.360993 6.76915e-05 0)
(0.360604 5.69084e-05 0)
(0.36033 4.48366e-05 0)
(0.35997 5.77574e-05 0)
(0.359597 7.23816e-05 0)
(0.359164 7.205e-05 0)
(0.358843 5.26261e-05 0)
(0.358577 4.35627e-05 0)
(0.35826 5.94392e-05 0)
(0.357913 5.60932e-05 0)
(0.357669 4.67212e-05 0)
(0.357362 5.25894e-05 0)
(0.35714 3.53271e-05 0)
(0.35699 2.57934e-05 0)
(0.356648 5.20803e-05 0)
(0.356309 5.19959e-05 0)
(0.355966 3.13649e-05 0)
(0.355679 6.80387e-05 0)
(0.355222 5.60326e-05 0)
(0.354978 7.05751e-05 0)
(0.354587 9.46021e-05 0)
(0.354332 4.55526e-05 0)
(0.354159 1.15676e-05 0)
(0.354047 9.96395e-06 0)
(0.353702 4.83376e-05 0)
(0.353595 4.79426e-05 0)
(0.353391 4.01668e-05 0)
(0.353264 3.99155e-05 0)
(0.353243 1.22033e-05 0)
(0.353104 7.64579e-06 0)
(0.353032 1.55359e-07 0)
(0.352856 8.37828e-06 0)
(0.352645 4.02825e-05 0)
(0.352468 3.39256e-05 0)
(0.352275 6.42422e-05 0)
(0.351778 6.19689e-05 0)
(0.35186 -2.66979e-06 0)
(0.351832 -2.21231e-05 0)
(0.35188 7.14731e-06 0)
(0.351782 2.81456e-05 0)
(0.351558 3.83079e-05 0)
(0.351358 3.15209e-05 0)
(0.35112 3.89973e-05 0)
(0.351041 2.98546e-05 0)
(0.350826 3.52031e-05 0)
(0.350587 2.04627e-05 0)
(0.350723 -1.97383e-06 0)
(0.350773 -5.26804e-06 0)
(0.350473 1.50379e-05 0)
(0.350537 3.21061e-05 0)
(0.350429 -1.25384e-05 0)
(0.350497 -3.43601e-05 0)
(0.350688 -2.80094e-05 0)
(0.350569 1.9117e-06 0)
(0.350498 1.02945e-06 0)
(0.350556 3.58476e-06 0)
(0.350482 1.11176e-05 0)
(0.350569 -8.47628e-06 0)
(0.350474 -1.72233e-06 0)
(0.350377 -7.01605e-06 0)
(0.350449 7.21867e-06 0)
(0.350339 1.32025e-05 0)
(0.350203 1.59751e-05 0)
(0.350154 3.18534e-05 0)
(0.35007 6.23334e-06 0)
(0.350212 4.60264e-06 0)
(0.350108 3.95801e-06 0)
(0.350162 1.62924e-05 0)
(0.349964 6.00437e-05 0)
(0.349791 1.34628e-05 0)
(0.3498 -7.78318e-06 0)
(0.349901 -4.09853e-05 0)
(0.349772 -3.25486e-06 0)
(0.34973 3.89291e-05 0)
(0.349595 1.89916e-05 0)
(0.349684 3.95423e-06 0)
(0.349674 -2.19807e-05 0)
(0.349777 3.53277e-06 0)
(0.349644 4.85473e-05 0)
(0.349362 -1.44134e-05 0)
(0.349447 -1.70431e-05 0)
(0.349354 4.03838e-06 0)
(0.349533 -4.38765e-05 0)
(0.34955 1.36488e-05 0)
(0.349498 2.96677e-05 0)
(0.349446 -3.91502e-05 0)
(0.349569 1.12864e-05 0)
(0.349527 4.70138e-05 0)
(0.349381 -2.14484e-05 0)
(0.349488 -8.98238e-06 0)
(0.349448 -1.05631e-05 0)
(0.349693 -3.06973e-05 0)
(0.349571 3.13209e-05 0)
(0.349492 9.20457e-06 0)
(0.349568 5.37853e-06 0)
(0.34952 5.18738e-05 0)
(0.34941 -2.74348e-05 0)
(0.349641 -2.08657e-05 0)
(0.349538 3.89713e-05 0)
(0.349351 1.79603e-06 0)
(0.349444 -1.0753e-05 0)
(0.349477 -1.59039e-05 0)
(0.349559 -1.52306e-05 0)
(0.349647 -1.3491e-06 0)
(0.349582 2.03283e-05 0)
(0.349444 2.97747e-05 0)
(0.349411 2.07719e-06 0)
(0.349109 2.45279e-05 0)
(0.349126 3.46316e-05 0)
(0.349097 -1.71629e-05 0)
(0.349095 2.68378e-05 0)
(0.348991 -2.98198e-05 0)
(0.349303 -7.07399e-05 0)
(1.01141 0.0502217 0)
(1.04001 0.0487918 0)
(1.02545 0.0348322 0)
(0.984774 0.0253327 0)
(0.929541 0.0186774 0)
(0.8781 0.0138901 0)
(0.829883 0.0105495 0)
(0.787967 0.00828059 0)
(0.751597 0.00661977 0)
(0.720615 0.00547853 0)
(0.694147 0.00456159 0)
(0.671354 0.00391115 0)
(0.6518 0.0033338 0)
(0.634577 0.00291314 0)
(0.619629 0.00252409 0)
(0.606282 0.00226961 0)
(0.594356 0.0020119 0)
(0.58382 0.001832 0)
(0.574084 0.00165553 0)
(0.565572 0.00150552 0)
(0.55749 0.00138279 0)
(0.550431 0.00127839 0)
(0.543625 0.00118566 0)
(0.537641 0.00109474 0)
(0.531872 0.00102189 0)
(0.526728 0.000948238 0)
(0.521776 0.000880918 0)
(0.517368 0.00081687 0)
(0.513083 0.000775383 0)
(0.509195 0.000726789 0)
(0.505438 0.000699272 0)
(0.501966 0.000685469 0)
(0.498502 0.000679977 0)
(0.49527 0.000652597 0)
(0.49221 0.000647961 0)
(0.489188 0.000634471 0)
(0.486475 0.00061793 0)
(0.483788 0.000595398 0)
(0.481416 0.000553211 0)
(0.479112 0.00052321 0)
(0.477061 0.000484558 0)
(0.47515 0.000443467 0)
(0.473383 0.000416235 0)
(0.471744 0.000377912 0)
(0.470269 0.000342592 0)
(0.468889 0.00031481 0)
(0.467644 0.000284842 0)
(0.466497 0.000263741 0)
(0.465417 0.000253745 0)
(0.46435 0.000252768 0)
(0.463327 0.000241968 0)
(0.462299 0.00023519 0)
(0.461294 0.000230445 0)
(0.460267 0.000223447 0)
(0.459291 0.000223774 0)
(0.458273 0.000213865 0)
(0.457397 0.000192644 0)
(0.456452 0.000186939 0)
(0.455631 0.000182353 0)
(0.454739 0.000175751 0)
(0.453967 0.000157195 0)
(0.453219 0.000148114 0)
(0.452488 0.000153377 0)
(0.451755 0.000141964 0)
(0.451129 0.000141412 0)
(0.450391 0.000138409 0)
(0.44981 0.000116358 0)
(0.449288 0.000115996 0)
(0.448651 0.000124669 0)
(0.44817 0.000122684 0)
(0.447568 0.000135189 0)
(0.447022 0.000137624 0)
(0.446489 0.000150849 0)
(0.445826 0.000161042 0)
(0.445349 0.000136562 0)
(0.444754 0.000127548 0)
(0.444272 0.000120186 0)
(0.443705 0.00014853 0)
(0.443084 0.000160804 0)
(0.442564 0.000164213 0)
(0.441861 0.000179456 0)
(0.441271 0.000157189 0)
(0.440632 0.000156905 0)
(0.439995 0.000148513 0)
(0.439483 0.000147132 0)
(0.438859 0.000149452 0)
(0.438431 0.000117875 0)
(0.437941 0.000116221 0)
(0.437486 9.97497e-05 0)
(0.437127 8.55253e-05 0)
(0.436673 0.000103604 0)
(0.436233 0.000120719 0)
(0.435762 0.000116349 0)
(0.435393 8.79987e-05 0)
(0.43505 7.96445e-05 0)
(0.434649 0.00010114 0)
(0.434266 9.27557e-05 0)
(0.433973 8.11254e-05 0)
(0.43361 8.85221e-05 0)
(0.433337 6.38488e-05 0)
(0.433114 6.0089e-05 0)
(0.43264 9.67244e-05 0)
(0.43226 9.48856e-05 0)
(0.431821 6.77328e-05 0)
(0.431479 0.000112031 0)
(0.431 9.3752e-05 0)
(0.430712 0.000107931 0)
(0.430285 0.000135731 0)
(0.430024 7.60993e-05 0)
(0.429811 3.43912e-05 0)
(0.429659 2.94128e-05 0)
(0.429365 7.58537e-05 0)
(0.429182 6.68413e-05 0)
(0.42893 5.14922e-05 0)
(0.42877 5.29398e-05 0)
(0.428626 2.16683e-05 0)
(0.428605 2.12678e-05 0)
(0.428489 1.35024e-05 0)
(0.428277 2.71629e-05 0)
(0.428048 6.44771e-05 0)
(0.427841 5.43258e-05 0)
(0.427621 0.000100669 0)
(0.427079 9.14816e-05 0)
(0.427059 2.54461e-07 0)
(0.427044 -2.14545e-05 0)
(0.427025 2.50774e-05 0)
(0.426857 5.91454e-05 0)
(0.42662 6.60605e-05 0)
(0.426365 5.23748e-05 0)
(0.426092 5.38103e-05 0)
(0.426009 4.09336e-05 0)
(0.425769 5.78646e-05 0)
(0.425541 2.77113e-05 0)
(0.425732 -6.80332e-06 0)
(0.425639 5.31936e-06 0)
(0.425359 2.38002e-05 0)
(0.425466 3.49918e-05 0)
(0.425324 -1.14392e-05 0)
(0.425361 -4.16806e-05 0)
(0.425563 -3.52939e-05 0)
(0.425408 8.37188e-06 0)
(0.425388 1.69941e-06 0)
(0.425442 8.80131e-06 0)
(0.425298 1.4353e-05 0)
(0.425431 -1.40155e-05 0)
(0.425301 1.10186e-05 0)
(0.425154 -3.43978e-06 0)
(0.425267 5.73844e-06 0)
(0.425173 2.09121e-05 0)
(0.425031 2.19828e-05 0)
(0.424982 4.30522e-05 0)
(0.424869 1.0045e-05 0)
(0.424999 5.59719e-06 0)
(0.42487 8.9151e-06 0)
(0.424948 3.19451e-05 0)
(0.424654 7.44704e-05 0)
(0.424612 1.85654e-05 0)
(0.424553 -7.00209e-06 0)
(0.424627 -3.88723e-05 0)
(0.424463 3.42756e-06 0)
(0.424421 4.90937e-05 0)
(0.424301 1.85424e-05 0)
(0.424462 -1.97361e-06 0)
(0.424415 -2.4065e-05 0)
(0.424482 1.18042e-05 0)
(0.424346 6.39736e-05 0)
(0.42415 -1.55868e-05 0)
(0.424178 -1.71035e-05 0)
(0.4241 5.75965e-06 0)
(0.424317 -6.57288e-05 0)
(0.424261 1.93528e-05 0)
(0.424226 4.63948e-05 0)
(0.42415 -4.92706e-05 0)
(0.424256 7.9216e-06 0)
(0.424232 6.29018e-05 0)
(0.424119 -2.09062e-05 0)
(0.42423 -1.21656e-05 0)
(0.424147 -1.60097e-05 0)
(0.424406 -4.14224e-05 0)
(0.424238 4.32352e-05 0)
(0.42423 1.01182e-05 0)
(0.424279 7.30687e-06 0)
(0.424144 5.83791e-05 0)
(0.424322 -4.11391e-05 0)
(0.424296 -2.68524e-05 0)
(0.424349 5.92441e-05 0)
(0.424044 5.32736e-06 0)
(0.424215 -1.71654e-05 0)
(0.424241 -2.05025e-05 0)
(0.424273 -2.24719e-05 0)
(0.424367 -2.39634e-06 0)
(0.424367 2.66991e-05 0)
(0.424143 4.46098e-05 0)
(0.424185 2.13367e-05 0)
(0.423764 3.95413e-05 0)
(0.423831 3.93995e-05 0)
(0.423817 -1.68229e-05 0)
(0.423673 3.25473e-05 0)
(0.423819 -3.75716e-05 0)
(0.423926 -9.15584e-05 0)
(1.00998 0.0450751 0)
(1.05291 0.048568 0)
(1.05263 0.0361307 0)
(1.04259 0.0289002 0)
(1.0191 0.0234614 0)
(0.989214 0.0190577 0)
(0.954136 0.015687 0)
(0.919298 0.0130565 0)
(0.884447 0.0109262 0)
(0.852166 0.009273 0)
(0.822295 0.00787313 0)
(0.79551 0.00678638 0)
(0.771614 0.00584708 0)
(0.750166 0.0051178 0)
(0.731159 0.00447141 0)
(0.714031 0.00400845 0)
(0.69868 0.00356105 0)
(0.684933 0.00322829 0)
(0.672353 0.00291472 0)
(0.661137 0.00265012 0)
(0.650666 0.00242528 0)
(0.641364 0.00223379 0)
(0.632553 0.0020651 0)
(0.624675 0.0019037 0)
(0.617202 0.00177119 0)
(0.610457 0.00164111 0)
(0.604049 0.00152348 0)
(0.598258 0.00141372 0)
(0.592712 0.00133528 0)
(0.587641 0.00125024 0)
(0.582785 0.0011936 0)
(0.578306 0.00115608 0)
(0.573937 0.00113111 0)
(0.569871 0.00107595 0)
(0.566066 0.00105312 0)
(0.562366 0.00101373 0)
(0.559091 0.00097263 0)
(0.555893 0.000925981 0)
(0.553092 0.000856953 0)
(0.550389 0.00080583 0)
(0.547988 0.000742593 0)
(0.545757 0.000681512 0)
(0.543682 0.00063694 0)
(0.541778 0.000579984 0)
(0.540034 0.00052825 0)
(0.538412 0.000485025 0)
(0.536942 0.00044042 0)
(0.535577 0.00040969 0)
(0.534276 0.000393802 0)
(0.533026 0.000389357 0)
(0.531814 0.000376139 0)
(0.53059 0.000369183 0)
(0.529379 0.000364505 0)
(0.528151 0.000355338 0)
(0.526955 0.00035559 0)
(0.525725 0.00034006 0)
(0.524634 0.000313174 0)
(0.52347 0.00030432 0)
(0.522444 0.000296622 0)
(0.521341 0.000287885 0)
(0.520375 0.0002602 0)
(0.519431 0.000246083 0)
(0.518531 0.000250167 0)
(0.517633 0.000232719 0)
(0.516856 0.000231115 0)
(0.515978 0.000224734 0)
(0.515266 0.000191125 0)
(0.514607 0.000192358 0)
(0.513851 0.000197907 0)
(0.513283 0.00019315 0)
(0.512582 0.000208666 0)
(0.511969 0.000206842 0)
(0.511372 0.000225356 0)
(0.510667 0.00023205 0)
(0.510156 0.000203277 0)
(0.509488 0.000197085 0)
(0.508935 0.000189063 0)
(0.508266 0.000223851 0)
(0.507614 0.000233519 0)
(0.507027 0.000240697 0)
(0.506284 0.000260659 0)
(0.505638 0.000234864 0)
(0.504922 0.000238237 0)
(0.504197 0.000223702 0)
(0.503592 0.000218022 0)
(0.502924 0.000216343 0)
(0.502435 0.000176545 0)
(0.501866 0.000176052 0)
(0.501351 0.00015388 0)
(0.500903 0.000139487 0)
(0.500352 0.000161919 0)
(0.499841 0.000178004 0)
(0.499342 0.000167982 0)
(0.498922 0.000133037 0)
(0.498492 0.000127835 0)
(0.498004 0.000152364 0)
(0.49759 0.000136888 0)
(0.497241 0.000123868 0)
(0.496831 0.000131631 0)
(0.496511 0.000100643 0)
(0.496204 0.000107166 0)
(0.495618 0.000151092 0)
(0.49521 0.000147916 0)
(0.494668 0.000116977 0)
(0.494262 0.000164227 0)
(0.493766 0.000140188 0)
(0.493414 0.000151786 0)
(0.492973 0.000177994 0)
(0.492711 0.000111116 0)
(0.492506 6.29213e-05 0)
(0.492339 4.97372e-05 0)
(0.492062 0.00010889 0)
(0.491828 9.87759e-05 0)
(0.49144 7.34546e-05 0)
(0.491121 6.66812e-05 0)
(0.491097 3.38339e-05 0)
(0.491078 3.84295e-05 0)
(0.490926 3.13249e-05 0)
(0.49069 5.037e-05 0)
(0.490478 9.25928e-05 0)
(0.490249 7.95376e-05 0)
(0.489987 0.000137839 0)
(0.489548 0.000125876 0)
(0.489432 3.5898e-10 0)
(0.489366 -1.96504e-05 0)
(0.489226 6.1751e-05 0)
(0.488917 0.000102852 0)
(0.488682 9.98412e-05 0)
(0.488371 7.92735e-05 0)
(0.488095 7.04068e-05 0)
(0.487944 5.71231e-05 0)
(0.487741 7.84775e-05 0)
(0.487512 3.43175e-05 0)
(0.487579 -3.71195e-06 0)
(0.487648 2.38889e-05 0)
(0.487171 3.44326e-05 0)
(0.487366 3.25752e-05 0)
(0.487224 -4.92651e-06 0)
(0.487204 -4.37785e-05 0)
(0.487291 -4.00091e-05 0)
(0.487209 7.85685e-06 0)
(0.48727 -3.33278e-06 0)
(0.487373 1.95741e-05 0)
(0.487101 2.09603e-05 0)
(0.487203 -1.92121e-05 0)
(0.487203 2.7785e-05 0)
(0.486943 -3.07113e-07 0)
(0.486968 2.13537e-06 0)
(0.487102 2.11013e-05 0)
(0.486858 2.54184e-05 0)
(0.486839 5.92982e-05 0)
(0.486729 2.08426e-05 0)
(0.486669 9.17916e-06 0)
(0.486659 9.69197e-06 0)
(0.486668 5.04132e-05 0)
(0.486445 9.15473e-05 0)
(0.486409 2.1874e-05 0)
(0.486363 -9.73243e-07 0)
(0.486368 -3.09712e-05 0)
(0.486167 1.37412e-05 0)
(0.486126 5.85865e-05 0)
(0.486033 1.50821e-05 0)
(0.486153 -1.3146e-05 0)
(0.486223 -1.93437e-05 0)
(0.486019 2.59095e-05 0)
(0.48604 6.58805e-05 0)
(0.486065 -1.25645e-05 0)
(0.485845 -1.53426e-05 0)
(0.48591 1.12987e-05 0)
(0.48595 -7.26736e-05 0)
(0.485965 1.39224e-05 0)
(0.486043 6.62446e-05 0)
(0.485892 -6.33506e-05 0)
(0.485981 1.43749e-06 0)
(0.486031 7.99777e-05 0)
(0.485971 -2.00401e-05 0)
(0.485775 -1.7677e-05 0)
(0.485993 -2.3458e-05 0)
(0.486004 -4.03149e-05 0)
(0.485903 4.37522e-05 0)
(0.486101 1.93777e-06 0)
(0.486005 1.64199e-05 0)
(0.485845 6.17689e-05 0)
(0.486142 -6.23822e-05 0)
(0.486051 -2.98291e-05 0)
(0.486005 7.95419e-05 0)
(0.485797 1.22005e-05 0)
(0.4861 -2.82308e-05 0)
(0.486011 -2.09678e-05 0)
(0.485983 -2.8272e-05 0)
(0.486045 -2.78476e-06 0)
(0.486152 3.29201e-05 0)
(0.48594 6.08663e-05 0)
(0.485922 4.43721e-05 0)
(0.485459 5.30619e-05 0)
(0.485631 3.97006e-05 0)
(0.485551 -1.08462e-05 0)
(0.48534 4.0585e-05 0)
(0.485466 -5.43373e-05 0)
(0.485596 -0.000101831 0)
(1.0087 0.0411009 0)
(1.05081 0.0471023 0)
(1.0593 0.0351575 0)
(1.05737 0.0295213 0)
(1.05126 0.0253515 0)
(1.03931 0.0217339 0)
(1.02163 0.0190061 0)
(1.00136 0.0167413 0)
(0.977371 0.0147622 0)
(0.952311 0.0130511 0)
(0.926169 0.0114781 0)
(0.900562 0.0101201 0)
(0.876068 0.00889558 0)
(0.852967 0.00787511 0)
(0.831719 0.00695732 0)
(0.812035 0.00625387 0)
(0.794097 0.00558404 0)
(0.777698 0.00506163 0)
(0.762667 0.00457676 0)
(0.749001 0.00416764 0)
(0.736319 0.00380933 0)
(0.724868 0.0035025 0)
(0.714131 0.00323402 0)
(0.704375 0.00297973 0)
(0.69523 0.00276608 0)
(0.686881 0.00256253 0)
(0.679013 0.00237857 0)
(0.671816 0.00220854 0)
(0.664994 0.00207878 0)
(0.658709 0.00194521 0)
(0.652735 0.00184646 0)
(0.647211 0.00177158 0)
(0.641929 0.00171483 0)
(0.636998 0.00161996 0)
(0.632445 0.00156792 0)
(0.628055 0.00149031 0)
(0.624194 0.00141217 0)
(0.620476 0.00133132 0)
(0.617237 0.00122838 0)
(0.61412 0.00114983 0)
(0.611375 0.00105562 0)
(0.608818 0.000971145 0)
(0.606431 0.000904513 0)
(0.60426 0.00082595 0)
(0.60224 0.000755356 0)
(0.60037 0.000693221 0)
(0.598658 0.000632495 0)
(0.597053 0.000591348 0)
(0.595522 0.000566708 0)
(0.594081 0.000556368 0)
(0.592676 0.000541204 0)
(0.591255 0.000535257 0)
(0.589839 0.000530912 0)
(0.588415 0.0005204 0)
(0.586996 0.00052164 0)
(0.585559 0.000499623 0)
(0.584238 0.000467506 0)
(0.582852 0.000454808 0)
(0.58161 0.000443018 0)
(0.580294 0.00043187 0)
(0.57913 0.000393786 0)
(0.577986 0.000371711 0)
(0.576912 0.000372108 0)
(0.575849 0.000347556 0)
(0.574921 0.000342982 0)
(0.573911 0.000331926 0)
(0.573067 0.000286315 0)
(0.572272 0.000288143 0)
(0.571406 0.000287125 0)
(0.570741 0.000278336 0)
(0.569954 0.000295538 0)
(0.569275 0.000287072 0)
(0.568617 0.000309178 0)
(0.567887 0.000310559 0)
(0.56733 0.000279995 0)
(0.566601 0.000278456 0)
(0.565993 0.000271124 0)
(0.56524 0.000309831 0)
(0.564576 0.000315197 0)
(0.563917 0.000327316 0)
(0.563149 0.000350944 0)
(0.562457 0.000323904 0)
(0.56168 0.000333504 0)
(0.560878 0.000313974 0)
(0.560178 0.000301001 0)
(0.559479 0.000292807 0)
(0.558914 0.000247173 0)
(0.558263 0.000247816 0)
(0.557686 0.000220312 0)
(0.557143 0.000208243 0)
(0.556494 0.000233741 0)
(0.555908 0.000244486 0)
(0.555384 0.000227967 0)
(0.554895 0.000190049 0)
(0.554369 0.000189378 0)
(0.5538 0.000213106 0)
(0.553355 0.000189059 0)
(0.552949 0.000175328 0)
(0.552495 0.000181482 0)
(0.552129 0.000146437 0)
(0.551725 0.000167585 0)
(0.551041 0.000214685 0)
(0.5506 0.000213306 0)
(0.549933 0.000182345 0)
(0.549453 0.000225967 0)
(0.548934 0.000198645 0)
(0.548487 0.000202427 0)
(0.54804 0.000218202 0)
(0.547744 0.000144537 0)
(0.547607 9.33369e-05 0)
(0.547461 7.29704e-05 0)
(0.547174 0.000142431 0)
(0.546929 0.000145004 0)
(0.54644 0.00011123 0)
(0.546031 8.56265e-05 0)
(0.545977 4.96043e-05 0)
(0.545917 6.11734e-05 0)
(0.545722 5.25243e-05 0)
(0.545432 7.31405e-05 0)
(0.545274 0.000121219 0)
(0.545076 0.000108698 0)
(0.544786 0.000176132 0)
(0.544356 0.000161094 0)
(0.544174 1.54197e-05 0)
(0.544008 -4.39404e-06 0)
(0.543809 0.000113925 0)
(0.543395 0.000157472 0)
(0.543158 0.000138165 0)
(0.542773 0.000112669 0)
(0.542414 9.24905e-05 0)
(0.542309 7.93985e-05 0)
(0.541944 9.43526e-05 0)
(0.542013 4.19728e-05 0)
(0.541824 7.10243e-06 0)
(0.541965 4.80098e-05 0)
(0.541359 4.43503e-05 0)
(0.541628 2.33458e-05 0)
(0.541462 5.48117e-06 0)
(0.541484 -3.84905e-05 0)
(0.541496 -3.8721e-05 0)
(0.541338 6.38448e-06 0)
(0.541457 -1.41142e-05 0)
(0.54146 3.28408e-05 0)
(0.541378 3.24622e-05 0)
(0.541442 -2.2803e-05 0)
(0.541349 3.90989e-05 0)
(0.541234 8.02132e-06 0)
(0.54103 -3.21203e-06 0)
(0.541222 1.09044e-05 0)
(0.5411 2.57909e-05 0)
(0.541019 7.81832e-05 0)
(0.5411 4.32667e-05 0)
(0.540677 1.71667e-05 0)
(0.540944 2.80568e-06 0)
(0.540722 6.56555e-05 0)
(0.540649 0.000109777 0)
(0.540599 2.7712e-05 0)
(0.540708 1.44818e-05 0)
(0.540464 -1.85258e-05 0)
(0.540244 2.45284e-05 0)
(0.540226 6.53769e-05 0)
(0.540207 9.88084e-06 0)
(0.540346 -2.30583e-05 0)
(0.540224 -5.65443e-06 0)
(0.540061 3.15e-05 0)
(0.540316 6.55685e-05 0)
(0.540111 -9.46146e-06 0)
(0.539926 -1.38071e-05 0)
(0.54016 1.3977e-05 0)
(0.540071 -7.99047e-05 0)
(0.539987 1.47051e-05 0)
(0.540165 7.38115e-05 0)
(0.540166 -7.34234e-05 0)
(0.540024 1.9393e-06 0)
(0.540042 8.41959e-05 0)
(0.540167 -4.45621e-06 0)
(0.539783 -1.96559e-05 0)
(0.540002 -3.79558e-05 0)