/*--------------------------------*- C++ -*----------------------------------*\
  =========                 |
  \\      /  F ield         | OpenFOAM: The Open Source CFD Toolbox
   \\    /   O peration     | Website:  https://openfoam.org
    \\  /    A nd           | Version:  12
     \\/     M anipulation  |
\*---------------------------------------------------------------------------*/
FoamFile
{
    format      ascii;
    class       volScalarField;
    location    "900";
    object      epsilon;
}
// * * * * * * * * * * * * * * * * * * * * * * * * * * * * * * * * * * * * * //

dimensions      [0 2 -3 0 0 0 0];

internalField   nonuniform List<scalar> 
20000
(
0.0755144
0.0283662
0.0314211
0.0419328
0.0488297
0.0543309
0.0597804
0.0655436
0.0703401
0.0747541
0.0777038
0.0809187
0.082988
0.0850562
0.086812
0.0884154
0.0896355
0.0906926
0.0915322
0.0922958
0.0928705
0.0933547
0.0937338
0.0940343
0.0942864
0.0944518
0.0945729
0.0946462
0.0946654
0.0946551
0.0946237
0.0945568
0.0944622
0.0943528
0.0942207
0.0940757
0.0939243
0.0937599
0.0935785
0.0933962
0.0932005
0.0930035
0.0927988
0.0925914
0.0923821
0.0921691
0.0919514
0.0917348
0.0915138
0.0912953
0.0910749
0.0908567
0.0906354
0.0904165
0.0901991
0.0899826
0.0897668
0.0895524
0.0893399
0.0891288
0.0889191
0.0887114
0.0885049
0.0883012
0.0880979
0.087898
0.0876995
0.0875037
0.0873094
0.0871177
0.0869276
0.08674
0.0865543
0.0863709
0.0861896
0.0860105
0.0858335
0.0856588
0.0854861
0.0853154
0.0851472
0.0849807
0.0848165
0.0846542
0.0844939
0.0843358
0.0841795
0.0840254
0.083873
0.0837227
0.0835742
0.0834276
0.0832829
0.0831399
0.0829989
0.0828596
0.082722
0.0825861
0.0824522
0.0823198
0.0821892
0.0820601
0.0819328
0.0818071
0.0816829
0.0815604
0.0814392
0.0813199
0.0812017
0.0810853
0.0809702
0.0808567
0.0807444
0.0806337
0.0805242
0.0804163
0.0803096
0.0802043
0.0801002
0.0799976
0.079896
0.0797959
0.0796969
0.0795992
0.0795026
0.0794073
0.0793131
0.0792201
0.0791283
0.0790375
0.0789479
0.0788593
0.0787718
0.0786853
0.0786
0.0785156
0.0784324
0.07835
0.0782687
0.0781883
0.078109
0.0780305
0.0779531
0.0778765
0.0778009
0.0777261
0.0776523
0.0775793
0.0775072
0.0774359
0.0773656
0.077296
0.0772272
0.0771593
0.0770922
0.0770258
0.0769602
0.0768955
0.0768314
0.0767682
0.0767055
0.0766437
0.0765826
0.0765223
0.0764625
0.0764035
0.0763452
0.0762876
0.0762307
0.0761745
0.0761189
0.0760641
0.0760098
0.0759563
0.0759032
0.0758509
0.0757993
0.0757483
0.0756979
0.0756477
0.0755984
0.0755489
0.0755009
0.0754519
0.0754054
0.0753565
0.0753118
0.0752618
0.0752198
0.0751674
0.0751306
0.0750731
0.0750434
0.0749798
0.0749541
0.0748905
0.0748644
0.0747986
0.0747771
0.0746754
0.0279445
0.0395263
0.0599302
0.0773089
0.0831639
0.0856044
0.0875906
0.0899433
0.0912916
0.0923912
0.0922733
0.0924389
0.0920151
0.0915996
0.0911228
0.0906839
0.0900712
0.0894542
0.0887715
0.0881325
0.0874425
0.0867655
0.0860851
0.0854107
0.0847649
0.0841117
0.0834743
0.0828498
0.0822283
0.0816247
0.0810397
0.0804637
0.0798971
0.0793483
0.0788088
0.078284
0.0777749
0.0772791
0.076789
0.0763168
0.0758511
0.0753997
0.0749573
0.0745263
0.0741064
0.0736962
0.0732935
0.0729019
0.0725172
0.0721432
0.0717767
0.07142
0.0710691
0.0707268
0.0703926
0.0700657
0.0697456
0.0694324
0.0691261
0.0688263
0.0685324
0.068245
0.0679628
0.0676872
0.067416
0.0671512
0.0668912
0.0666368
0.066387
0.0661423
0.065902
0.0656666
0.0654354
0.0652086
0.0649862
0.0647677
0.0645534
0.064343
0.0641364
0.0639335
0.0637344
0.0635386
0.0633464
0.0631575
0.0629718
0.0627895
0.0626101
0.062434
0.0622607
0.0620904
0.0619229
0.0617582
0.0615961
0.0614367
0.06128
0.0611257
0.060974
0.0608245
0.0606777
0.060533
0.0603907
0.0602505
0.0601125
0.0599767
0.0598429
0.0597112
0.0595814
0.0594538
0.0593279
0.059204
0.0590818
0.0589616
0.058843
0.0587262
0.0586111
0.0584977
0.0583859
0.0582758
0.0581671
0.0580602
0.0579546
0.0578506
0.057748
0.0576469
0.0575471
0.0574488
0.0573518
0.0572561
0.0571618
0.0570687
0.056977
0.0568864
0.0567971
0.0567089
0.056622
0.0565362
0.0564516
0.056368
0.0562856
0.0562043
0.056124
0.0560448
0.0559666
0.0558894
0.0558132
0.055738
0.0556638
0.0555905
0.0555181
0.0554467
0.0553762
0.0553065
0.0552378
0.0551699
0.0551029
0.0550367
0.0549713
0.0549067
0.054843
0.05478
0.0547177
0.0546563
0.0545956
0.0545357
0.0544764
0.0544179
0.0543601
0.054303
0.0542466
0.0541909
0.0541359
0.0540816
0.0540279
0.0539748
0.0539224
0.0538705
0.0538196
0.0537689
0.0537192
0.0536693
0.0536209
0.0535716
0.0535247
0.0534758
0.0534306
0.0533816
0.0533383
0.0532883
0.0532477
0.0531957
0.0531592
0.0531035
0.0530723
0.0530124
0.0529837
0.0529237
0.0528947
0.0528321
0.0528059
0.0527249
0.00616109
0.0183348
0.0321131
0.0491509
0.0621064
0.0722307
0.0795382
0.085055
0.0882598
0.0903003
0.0907679
0.0909215
0.0905312
0.0898454
0.0890141
0.0881592
0.0871682
0.0861441
0.0850834
0.0840662
0.0830374
0.0820355
0.0810546
0.0801004
0.0791887
0.0782974
0.0774354
0.0766054
0.0757972
0.0750208
0.0742741
0.0735515
0.0728509
0.0721774
0.0715242
0.0708952
0.0702879
0.0697024
0.069131
0.0685824
0.0680481
0.0675323
0.0670317
0.0665463
0.0660764
0.0656202
0.0651763
0.0647459
0.0643266
0.0639201
0.0635244
0.0631403
0.0627653
0.0624007
0.062046
0.0617005
0.0613636
0.0610354
0.0607153
0.0604033
0.0600985
0.0598013
0.0595106
0.0592273
0.0589499
0.0586794
0.0584148
0.0581563
0.0579034
0.0576561
0.057414
0.0571773
0.0569455
0.0567185
0.0564964
0.0562787
0.0560655
0.0558567
0.055652
0.0554514
0.0552548
0.055062
0.0548728
0.0546874
0.0545053
0.0543268
0.0541515
0.0539796
0.0538107
0.053645
0.0534822
0.0533223
0.0531653
0.053011
0.0528594
0.0527104
0.0525641
0.0524201
0.0522788
0.0521397
0.052003
0.0518685
0.0517362
0.0516062
0.0514782
0.0513524
0.0512284
0.0511066
0.0509866
0.0508686
0.0507524
0.050638
0.0505253
0.0504145
0.0503053
0.0501977
0.0500918
0.0499875
0.0498848
0.0497836
0.0496839
0.0495856
0.0494888
0.0493934
0.0492994
0.0492067
0.0491154
0.0490254
0.0489367
0.0488492
0.0487629
0.0486779
0.048594
0.0485113
0.0484298
0.0483493
0.04827
0.0481917
0.0481146
0.0480384
0.0479633
0.0478892
0.0478161
0.0477439
0.0476728
0.0476025
0.0475332
0.0474648
0.0473973
0.0473307
0.0472649
0.0472
0.0471359
0.0470726
0.0470102
0.0469485
0.0468876
0.0468276
0.0467682
0.0467096
0.0466517
0.0465946
0.0465381
0.0464824
0.0464274
0.046373
0.0463193
0.0462663
0.0462139
0.0461622
0.0461111
0.0460606
0.0460108
0.0459615
0.0459129
0.0458647
0.0458174
0.0457703
0.0457242
0.045678
0.0456331
0.0455875
0.0455439
0.0454988
0.0454566
0.0454118
0.0453712
0.0453259
0.0452874
0.0452409
0.0452055
0.0451567
0.0451255
0.0450735
0.045045
0.0449924
0.0449638
0.0449105
0.0448825
0.0448223
0.00171954
0.00660887
0.0120996
0.020626
0.0298563
0.0397293
0.049036
0.0575131
0.0640645
0.0691519
0.0723542
0.0746144
0.0758882
0.0765426
0.0766993
0.0765944
0.0762309
0.0756567
0.0749611
0.0742201
0.073429
0.0726079
0.0717769
0.0709436
0.0701277
0.0693215
0.0685283
0.0677572
0.0670017
0.0662706
0.0655628
0.0648768
0.06421
0.0635668
0.0629426
0.0623409
0.0617588
0.0611973
0.0606505
0.0601243
0.059613
0.0591189
0.0586405
0.0581765
0.0577276
0.0572922
0.0568694
0.0564595
0.0560612
0.0556749
0.0552996
0.0549354
0.0545807
0.0542359
0.0539009
0.053575
0.0532575
0.0529486
0.0526477
0.0523546
0.0520687
0.0517901
0.0515182
0.0512531
0.0509942
0.0507417
0.0504951
0.0502543
0.050019
0.0497891
0.0495644
0.0493447
0.0491299
0.0489197
0.0487142
0.048513
0.048316
0.0481233
0.0479345
0.0477496
0.0475686
0.0473912
0.0472173
0.0470469
0.0468798
0.046716
0.0465553
0.0463977
0.0462431
0.0460914
0.0459425
0.0457964
0.045653
0.0455121
0.0453738
0.045238
0.0451045
0.0449735
0.0448447
0.0447182
0.0445939
0.0444716
0.0443515
0.0442334
0.0441172
0.044003
0.0438906
0.0437802
0.0436715
0.0435646
0.0434593
0.0433558
0.0432539
0.0431536
0.0430549
0.0429578
0.0428621
0.0427679
0.0426751
0.0425838
0.0424939
0.0424053
0.042318
0.042232
0.0421473
0.0420639
0.0419816
0.0419006
0.0418207
0.041742
0.0416644
0.0415879
0.0415126
0.0414382
0.041365
0.0412927
0.0412215
0.0411512
0.0410819
0.0410136
0.0409462
0.0408797
0.0408141
0.0407494
0.0406856
0.0406226
0.0405605
0.0404992
0.0404387
0.040379
0.0403201
0.040262
0.0402046
0.040148
0.0400921
0.0400369
0.0399825
0.0399287
0.0398756
0.0398232
0.0397715
0.0397204
0.0396699
0.0396201
0.0395709
0.0395224
0.0394744
0.039427
0.0393803
0.0393341
0.0392885
0.0392434
0.0391989
0.0391549
0.0391115
0.0390686
0.0390264
0.0389844
0.0389432
0.038902
0.0388619
0.0388215
0.0387823
0.0387426
0.0387046
0.0386652
0.0386285
0.0385891
0.0385539
0.038514
0.0384812
0.0384398
0.0384104
0.0383666
0.03834
0.0382954
0.0382693
0.0382248
0.0381995
0.0381511
0.000874538
0.0025867
0.00465712
0.00794305
0.0121171
0.0172679
0.0230063
0.029512
0.0359477
0.0423029
0.0476668
0.0521852
0.0556557
0.0582485
0.0600759
0.0613607
0.0621555
0.0625839
0.0627125
0.062658
0.0624661
0.0621269
0.0617127
0.0612321
0.0607208
0.0601828
0.0596187
0.0590485
0.0584712
0.057897
0.05733
0.05677
0.0562174
0.0556773
0.0551475
0.0546317
0.0541288
0.0536404
0.0531623
0.0526992
0.0522477
0.0518093
0.0513836
0.0509694
0.0505678
0.050177
0.0497973
0.0494281
0.0490691
0.0487204
0.0483811
0.0480516
0.0477305
0.0474181
0.0471144
0.0468187
0.0465305
0.0462501
0.0459767
0.0457105
0.0454507
0.0451975
0.0449504
0.0447094
0.0444741
0.0442446
0.0440205
0.0438017
0.0435879
0.043379
0.0431748
0.0429753
0.0427802
0.0425894
0.0424028
0.0422201
0.0420414
0.0418665
0.0416952
0.0415276
0.0413634
0.0412026
0.0410449
0.0408905
0.0407391
0.0405907
0.0404452
0.0403025
0.0401626
0.0400253
0.0398907
0.0397585
0.0396288
0.0395014
0.0393764
0.0392537
0.0391331
0.0390147
0.0388985
0.0387842
0.038672
0.0385617
0.0384533
0.0383468
0.038242
0.038139
0.0380377
0.0379382
0.0378402
0.0377439
0.0376491
0.0375559
0.0374641
0.0373739
0.037285
0.0371976
0.0371115
0.0370268
0.0369433
0.0368612
0.0367803
0.0367007
0.0366222
0.036545
0.0364689
0.0363939
0.03632
0.0362472
0.0361755
0.0361049
0.0360352
0.0359666
0.0358989
0.0358322
0.0357665
0.0357017
0.0356378
0.0355747
0.0355126
0.0354513
0.0353909
0.0353313
0.0352725
0.0352146
0.0351574
0.035101
0.0350453
0.0349904
0.0349362
0.0348828
0.03483
0.034778
0.0347266
0.0346759
0.0346259
0.0345765
0.0345278
0.0344797
0.0344322
0.0343853
0.034339
0.0342933
0.0342482
0.0342037
0.0341597
0.0341163
0.0340734
0.034031
0.0339892
0.033948
0.0339072
0.0338669
0.0338272
0.0337879
0.0337491
0.0337108
0.033673
0.0336357
0.0335988
0.0335622
0.0335262
0.0334903
0.0334552
0.03342
0.0333858
0.0333512
0.033318
0.0332836
0.0332516
0.0332171
0.033187
0.0331515
0.0331241
0.033087
0.0330623
0.0330242
0.0330009
0.0329628
0.032941
0.0328999
0.000656669
0.0013217
0.00216783
0.00342241
0.00503524
0.00723192
0.00981369
0.0131025
0.0168119
0.0211522
0.0256791
0.030269
0.0345638
0.0383879
0.0416065
0.044273
0.0463768
0.0480018
0.0492016
0.0500729
0.0506736
0.0510436
0.0512407
0.0512804
0.0512323
0.0511003
0.0508837
0.0506222
0.0503179
0.0499851
0.0496365
0.0492695
0.0488906
0.0485073
0.0481196
0.0477325
0.0473479
0.0469672
0.0465889
0.046217
0.0458507
0.0454907
0.0451383
0.0447926
0.044455
0.0441244
0.0438012
0.0434854
0.0431769
0.0428759
0.042582
0.0422955
0.0420156
0.0417425
0.0414761
0.0412163
0.0409625
0.0407151
0.0404734
0.0402377
0.0400073
0.0397825
0.0395628
0.0393483
0.0391387
0.0389339
0.0387339
0.0385383
0.0383472
0.0381603
0.0379775
0.0377987
0.0376238
0.0374526
0.0372852
0.0371213
0.0369608
0.0368037
0.0366498
0.0364991
0.0363514
0.0362068
0.036065
0.035926
0.0357898
0.0356562
0.0355252
0.0353967
0.0352707
0.0351471
0.0350258
0.0349067
0.0347899
0.0346752
0.0345625
0.0344519
0.0343433
0.0342366
0.0341319
0.0340289
0.0339278
0.0338284
0.0337307
0.0336347
0.0335402
0.0334474
0.0333562
0.0332664
0.0331782
0.0330914
0.033006
0.0329219
0.0328393
0.0327579
0.0326779
0.0325991
0.0325215
0.0324452
0.03237
0.032296
0.0322232
0.0321514
0.0320807
0.0320111
0.0319426
0.031875
0.0318085
0.031743
0.0316784
0.0316147
0.031552
0.0314902
0.0314293
0.0313692
0.03131
0.0312517
0.0311941
0.0311374
0.0310815
0.0310263
0.0309719
0.0309183
0.0308654
0.0308132
0.0307617
0.0307109
0.0306609
0.0306115
0.0305627
0.0305146
0.0304671
0.0304203
0.0303741
0.0303285
0.0302835
0.0302391
0.0301952
0.030152
0.0301092
0.0300671
0.0300254
0.0299844
0.0299438
0.0299037
0.0298642
0.0298251
0.0297866
0.0297485
0.029711
0.0296739
0.0296372
0.0296011
0.0295653
0.0295301
0.0294952
0.0294608
0.0294268
0.0293933
0.0293601
0.0293273
0.0292949
0.0292629
0.0292311
0.0291999
0.0291689
0.0291382
0.029108
0.0290778
0.0290486
0.0290184
0.0289908
0.02896
0.0289346
0.0289027
0.0288798
0.0288469
0.028826
0.0287928
0.0287742
0.0287382
0.000586349
0.000878515
0.00127392
0.00181878
0.00247087
0.00336919
0.00442267
0.00582704
0.00748483
0.00959096
0.0120594
0.0149229
0.0180663
0.0213694
0.0246288
0.0277378
0.0305534
0.0330287
0.0351277
0.0368801
0.0383073
0.0394466
0.0403403
0.0410162
0.0415206
0.041883
0.0421159
0.0422521
0.0422997
0.0422826
0.0422221
0.0421059
0.0419548
0.0417775
0.0415753
0.0413565
0.0411269
0.0408856
0.0406357
0.040381
0.0401234
0.0398626
0.0396027
0.0393431
0.039085
0.0388286
0.0385748
0.038324
0.0380764
0.0378325
0.0375927
0.037357
0.0371252
0.0368977
0.0366746
0.0364558
0.0362411
0.0360309
0.0358248
0.035623
0.0354251
0.0352314
0.0350416
0.0348558
0.0346737
0.0344955
0.0343209
0.03415
0.0339826
0.0338186
0.033658
0.0335006
0.0333465
0.0331955
0.0330475
0.0329025
0.0327603
0.032621
0.0324844
0.0323506
0.0322193
0.0320906
0.0319643
0.0318405
0.031719
0.0315998
0.0314828
0.031368
0.0312554
0.0311448
0.0310362
0.0309296
0.030825
0.0307222
0.0306212
0.030522
0.0304246
0.0303289
0.0302348
0.0301424
0.0300515
0.0299622
0.0298744
0.0297881
0.0297032
0.0296197
0.0295376
0.0294569
0.0293774
0.0292993
0.0292224
0.0291467
0.0290723
0.028999
0.0289269
0.0288559
0.028786
0.0287172
0.0286495
0.0285828
0.0285171
0.0284524
0.0283887
0.0283259
0.0282641
0.0282031
0.0281431
0.028084
0.0280257
0.0279683
0.0279117
0.0278559
0.0278009
0.0277467
0.0276933
0.0276406
0.0275887
0.0275375
0.027487
0.0274372
0.027388
0.0273396
0.0272918
0.0272447
0.0271982
0.0271524
0.0271072
0.0270625
0.0270185
0.0269751
0.0269322
0.0268899
0.0268482
0.026807
0.0267663
0.0267262
0.0266866
0.0266475
0.0266089
0.0265708
0.0265332
0.0264961
0.0264594
0.0264233
0.0263875
0.0263523
0.0263174
0.0262831
0.0262491
0.0262156
0.0261825
0.0261499
0.0261176
0.0260857
0.0260542
0.0260232
0.0259925
0.0259623
0.0259322
0.0259027
0.0258733
0.0258446
0.0258158
0.0257878
0.0257597
0.0257323
0.0257048
0.0256778
0.0256512
0.0256245
0.0255992
0.0255721
0.0255488
0.0255209
0.0254998
0.025471
0.0254522
0.0254228
0.0254069
0.0253749
0.000560628
0.000698416
0.000903841
0.00117653
0.00147861
0.00188124
0.00233218
0.00292336
0.00361869
0.00451269
0.00560045
0.00695055
0.00856521
0.0104643
0.0125938
0.0149167
0.0173269
0.0197391
0.0220486
0.0241965
0.0261329
0.0278409
0.0293188
0.0305748
0.0316282
0.0325038
0.0332153
0.0337903
0.0342413
0.0345895
0.0348539
0.0350412
0.0351636
0.0352346
0.035256
0.0352433
0.0352035
0.0351314
0.0350381
0.0349266
0.0348016
0.0346611
0.034514
0.0343587
0.0341965
0.0340294
0.0338585
0.0336854
0.0335099
0.0333336
0.0331574
0.0329813
0.0328055
0.0326308
0.0324574
0.0322857
0.0321155
0.0319474
0.0317815
0.0316178
0.0314562
0.031297
0.0311402
0.0309858
0.0308339
0.0306845
0.0305376
0.0303931
0.0302512
0.0301117
0.0299745
0.0298398
0.0297075
0.0295775
0.0294499
0.0293245
0.0292013
0.0290803
0.0289615
0.0288448
0.0287302
0.0286176
0.028507
0.0283984
0.0282917
0.0281869
0.0280839
0.0279827
0.0278833
0.0277856
0.0276896
0.0275952
0.0275024
0.0274113
0.0273216
0.0272335
0.0271469
0.0270617
0.026978
0.0268956
0.0268146
0.0267349
0.0266565
0.0265794
0.0265036
0.0264289
0.0263555
0.0262832
0.0262121
0.0261421
0.0260732
0.0260053
0.0259386
0.0258728
0.0258081
0.0257443
0.0256816
0.0256197
0.0255589
0.0254989
0.0254398
0.0253816
0.0253242
0.0252677
0.0252121
0.0251572
0.0251031
0.0250499
0.0249973
0.0249456
0.0248945
0.0248442
0.0247946
0.0247457
0.0246975
0.02465
0.0246031
0.0245569
0.0245113
0.0244663
0.0244219
0.0243782
0.024335
0.0242924
0.0242504
0.024209
0.0241681
0.0241277
0.0240879
0.0240486
0.0240099
0.0239716
0.0239338
0.0238966
0.0238598
0.0238235
0.0237876
0.0237522
0.0237173
0.0236828
0.0236488
0.0236152
0.023582
0.0235492
0.0235169
0.0234849
0.0234534
0.0234223
0.0233915
0.0233612
0.0233312
0.0233016
0.0232723
0.0232435
0.0232149
0.0231869
0.023159
0.0231317
0.0231044
0.0230778
0.0230511
0.0230251
0.022999
0.0229737
0.0229482
0.0229235
0.0228985
0.0228744
0.0228501
0.0228262
0.0228031
0.0227791
0.0227577
0.022733
0.0227136
0.0226882
0.0226713
0.0226451
0.0226312
0.0226027
0.000550227
0.000617959
0.000729603
0.000880218
0.00103903
0.00124305
0.00146175
0.00173446
0.00204523
0.00243047
0.00289211
0.00346913
0.00417103
0.00504126
0.00608451
0.0073241
0.00874661
0.0103396
0.0120551
0.0138445
0.0156446
0.0174016
0.0190682
0.0206119
0.022012
0.023266
0.0243683
0.0253312
0.0261591
0.0268673
0.0274671
0.0279705
0.0283867
0.028729
0.0290036
0.0292214
0.0293914
0.0295169
0.0296048
0.0296597
0.029689
0.0296883
0.0296747
0.0296415
0.0295911
0.0295285
0.0294549
0.0293726
0.0292811
0.0291839
0.029082
0.0289749
0.028864
0.0287502
0.028634
0.0285165
0.0283972
0.0282772
0.028157
0.0280364
0.0279158
0.0277954
0.0276756
0.0275563
0.0274379
0.0273204
0.0272039
0.0270887
0.0269746
0.0268617
0.0267502
0.02664
0.0265313
0.0264239
0.026318
0.0262135
0.0261105
0.026009
0.0259088
0.0258103
0.0257131
0.0256174
0.0255232
0.0254304
0.0253389
0.0252489
0.0251603
0.025073
0.0249871
0.0249025
0.0248192
0.0247373
0.0246565
0.0245771
0.0244988
0.0244218
0.024346
0.0242713
0.0241978
0.0241255
0.0240542
0.0239841
0.023915
0.0238469
0.0237799
0.0237139
0.0236489
0.0235849
0.0235219
0.0234598
0.0233986
0.0233383
0.023279
0.0232204
0.0231628
0.023106
0.0230501
0.0229949
0.0229406
0.022887
0.0228342
0.0227822
0.0227309
0.0226803
0.0226305
0.0225813
0.0225329
0.0224851
0.022438
0.0223916
0.0223457
0.0223006
0.022256
0.0222121
0.0221687
0.022126
0.0220838
0.0220422
0.0220011
0.0219606
0.0219207
0.0218813
0.0218424
0.021804
0.0217661
0.0217287
0.0216918
0.0216554
0.0216195
0.021584
0.021549
0.0215144
0.0214803
0.0214466
0.0214134
0.0213805
0.0213481
0.0213161
0.0212845
0.0212534
0.0212225
0.0211921
0.0211621
0.0211324
0.0211031
0.0210742
0.0210457
0.0210175
0.0209896
0.0209621
0.0209349
0.0209082
0.0208816
0.0208555
0.0208296
0.0208042
0.0207789
0.0207542
0.0207294
0.0207053
0.0206811
0.0206576
0.0206339
0.020611
0.0205878
0.0205656
0.0205428
0.0205211
0.020499
0.0204776
0.0204565
0.0204351
0.0204154
0.0203935
0.0203758
0.0203532
0.0203379
0.0203144
0.0203022
0.0202767
0.000545457
0.000579973
0.000640681
0.000727571
0.000818406
0.000932022
0.00105114
0.00119261
0.00134841
0.00153194
0.00174377
0.00199916
0.00230289
0.00267769
0.00313071
0.00368632
0.00435534
0.00515372
0.00608414
0.00714641
0.00832471
0.00959722
0.0109303
0.0122892
0.0136345
0.0149408
0.0161772
0.0173325
0.0183912
0.0193536
0.0202173
0.0209871
0.0216661
0.0222627
0.0227819
0.0232319
0.0236192
0.0239502
0.0242308
0.0244657
0.0246626
0.0248209
0.0249508
0.0250529
0.02513
0.0251858
0.0252225
0.0252434
0.0252471
0.0252409
0.0252239
0.0251953
0.0251584
0.0251142
0.0250635
0.0250076
0.0249461
0.0248809
0.0248128
0.024741
0.0246667
0.0245902
0.0245119
0.0244322
0.0243514
0.0242695
0.024187
0.0241043
0.0240211
0.0239378
0.0238545
0.0237713
0.0236884
0.0236058
0.0235237
0.023442
0.0233608
0.0232804
0.0232005
0.0231214
0.023043
0.0229654
0.0228886
0.0228126
0.0227374
0.0226631
0.0225897
0.0225171
0.0224453
0.0223745
0.0223046
0.0222355
0.0221673
0.0221
0.0220336
0.021968
0.0219033
0.0218395
0.0217765
0.0217143
0.021653
0.0215926
0.0215329
0.0214741
0.021416
0.0213588
0.0213023
0.0212466
0.0211917
0.0211375
0.021084
0.0210313
0.0209793
0.020928
0.0208774
0.0208275
0.0207783
0.0207297
0.0206818
0.0206346
0.020588
0.020542
0.0204966
0.0204519
0.0204077
0.0203641
0.0203212
0.0202787
0.0202369
0.0201956
0.0201548
0.0201146
0.0200749
0.0200358
0.0199971
0.019959
0.0199213
0.0198841
0.0198475
0.0198112
0.0197755
0.0197402
0.0197054
0.019671
0.019637
0.0196035
0.0195704
0.0195377
0.0195055
0.0194736
0.0194422
0.0194111
0.0193804
0.0193501
0.0193202
0.0192907
0.0192615
0.0192327
0.0192042
0.0191761
0.0191483
0.0191209
0.0190938
0.019067
0.0190406
0.0190145
0.0189887
0.0189632
0.0189381
0.0189133
0.0188887
0.0188645
0.0188405
0.0188169
0.0187935
0.0187705
0.0187476
0.0187252
0.0187028
0.018681
0.0186591
0.0186379
0.0186164
0.0185957
0.0185747
0.0185546
0.018534
0.0185144
0.0184944
0.0184751
0.018456
0.0184368
0.0184189
0.0183994
0.0183832
0.0183631
0.0183492
0.0183283
0.0183174
0.0182945
0.00054288
0.000561094
0.000593305
0.000643408
0.000697285
0.000764119
0.000834172
0.00091457
0.00100118
0.00109894
0.00120756
0.00133276
0.00147628
0.00164711
0.0018479
0.00209111
0.00238378
0.00273736
0.00316259
0.00367063
0.00426678
0.00495764
0.00574014
0.00660959
0.00754805
0.00854301
0.00956685
0.0106023
0.0116229
0.0126145
0.0135603
0.0144519
0.0152808
0.0160456
0.016744
0.0173786
0.0179505
0.018464
0.0189223
0.0193291
0.0196901
0.0200065
0.0202848
0.0205274
0.0207379
0.0209194
0.0210745
0.0212067
0.0213166
0.0214081
0.0214833
0.0215426
0.0215881
0.0216215
0.0216437
0.0216568
0.0216597
0.0216563
0.0216467
0.0216295
0.021607
0.0215797
0.0215481
0.0215125
0.021474
0.0214318
0.0213874
0.021341
0.0212923
0.0212418
0.0211899
0.0211366
0.0210824
0.0210272
0.0209713
0.0209147
0.0208576
0.0208003
0.0207426
0.0206848
0.0206269
0.020569
0.0205111
0.0204533
0.0203957
0.0203383
0.0202812
0.0202244
0.0201679
0.0201118
0.0200561
0.0200008
0.019946
0.0198916
0.0198376
0.0197842
0.0197312
0.0196788
0.0196268
0.0195754
0.0195245
0.0194742
0.0194244
0.0193751
0.0193264
0.0192782
0.0192305
0.0191834
0.0191368
0.0190908
0.0190453
0.0190003
0.0189559
0.0189119
0.0188685
0.0188257
0.0187833
0.0187414
0.0187001
0.0186592
0.0186188
0.018579
0.0185396
0.0185006
0.0184622
0.0184242
0.0183867
0.0183497
0.0183131
0.0182769
0.0182412
0.0182059
0.0181711
0.0181366
0.0181026
0.018069
0.0180358
0.0180031
0.0179707
0.0179387
0.0179071
0.0178758
0.017845
0.0178145
0.0177844
0.0177547
0.0177253
0.0176963
0.0176676
0.0176392
0.0176112
0.0175836
0.0175562
0.0175292
0.0175025
0.0174761
0.0174501
0.0174243
0.0173989
0.0173738
0.0173489
0.0173244
0.0173001
0.0172761
0.0172524
0.017229
0.0172059
0.0171831
0.0171605
0.0171382
0.0171161
0.0170944
0.0170728
0.0170516
0.0170305
0.0170099
0.0169893
0.0169691
0.016949
0.0169294
0.0169096
0.0168905
0.0168711
0.0168526
0.0168336
0.0168155
0.016797
0.0167793
0.0167613
0.016744
0.0167268
0.0167095
0.0166934
0.016676
0.0166613
0.0166434
0.0166308
0.0166122
0.0166025
0.0165821
0.000541242
0.000550891
0.00056733
0.000595234
0.000627038
0.000667009
0.00070966
0.000757878
0.000809395
0.000866009
0.00092718
0.000995289
0.00107046
0.00115663
0.00125414
0.00136856
0.00150195
0.00166046
0.00184908
0.00207491
0.00234323
0.00266355
0.00303997
0.00348031
0.00398402
0.00455617
0.00518909
0.00588004
0.0066153
0.00738529
0.008174
0.00896921
0.00975582
0.0105242
0.0112636
0.0119686
0.012633
0.0132549
0.0138324
0.0143653
0.0148555
0.0153028
0.0157108
0.0160804
0.0164148
0.0167161
0.0169869
0.0172295
0.017446
0.0176384
0.0178093
0.0179601
0.0180925
0.0182083
0.0183088
0.0183959
0.0184698
0.0185327
0.0185857
0.0186289
0.0186634
0.0186902
0.0187101
0.0187233
0.0187312
0.0187329
0.0187308
0.0187247
0.018714
0.0186999
0.0186827
0.0186626
0.0186401
0.0186151
0.0185882
0.0185592
0.0185287
0.018497
0.0184637
0.0184293
0.0183938
0.0183575
0.0183204
0.0182826
0.0182442
0.0182053
0.0181661
0.0181263
0.0180865
0.0180464
0.0180061
0.0179657
0.0179252
0.0178848
0.0178443
0.0178038
0.0177635
0.0177232
0.0176832
0.0176432
0.0176034
0.0175639
0.0175245
0.0174854
0.0174465
0.0174079
0.0173696
0.0173315
0.0172938
0.0172563
0.0172191
0.0171823
0.0171457
0.0171095
0.0170736
0.017038
0.0170028
0.0169679
0.0169333
0.0168991
0.0168652
0.0168316
0.0167984
0.0167655
0.0167329
0.0167007
0.0166688
0.0166372
0.016606
0.0165751
0.0165445
0.0165143
0.0164843
0.0164547
0.0164254
0.0163965
0.0163678
0.0163395
0.0163114
0.0162837
0.0162563
0.0162291
0.0162023
0.0161758
0.0161495
0.0161236
0.0160979
0.0160725
0.0160474
0.0160226
0.015998
0.0159737
0.0159497
0.015926
0.0159025
0.0158793
0.0158563
0.0158336
0.0158112
0.015789
0.015767
0.0157453
0.0157238
0.0157026
0.0156816
0.0156609
0.0156404
0.0156201
0.0156
0.0155802
0.0155606
0.0155413
0.0155221
0.0155032
0.0154844
0.015466
0.0154476
0.0154297
0.0154117
0.0153942
0.0153766
0.0153595
0.0153422
0.0153256
0.0153087
0.0152925
0.015276
0.0152602
0.0152441
0.0152286
0.0152132
0.0151979
0.0151834
0.015168
0.0151548
0.015139
0.0151276
0.0151111
0.0151026
0.0150843
0.000540075
0.000544657
0.000552529
0.000567008
0.000584994
0.000608442
0.000634318
0.000663718
0.000695268
0.000729628
0.000766186
0.000806074
0.000848835
0.000896461
0.000948497
0.00100765
0.00107415
0.00115096
0.00123979
0.00134374
0.00146537
0.00160989
0.00177941
0.0019807
0.00221577
0.00249187
0.00280964
0.00317452
0.00358535
0.00404334
0.00454395
0.00508392
0.00565491
0.00625022
0.00685994
0.00747629
0.00808977
0.00869346
0.00928084
0.00984637
0.0103876
0.0109001
0.0113838
0.0118368
0.0122597
0.0126524
0.0130164
0.013352
0.0136611
0.0139445
0.0142043
0.0144415
0.0146577
0.0148543
0.0150326
0.0151943
0.01534
0.0154715
0.0155898
0.0156957
0.0157902
0.0158743
0.0159488
0.0160142
0.0160719
0.0161215
0.0161645
0.0162015
0.0162324
0.0162579
0.0162786
0.0162946
0.0163067
0.0163148
0.0163197
0.0163208
0.0163196
0.0163159
0.0163093
0.0163005
0.0162897
0.016277
0.0162626
0.0162468
0.0162294
0.0162108
0.0161909
0.01617
0.0161483
0.0161256
0.0161021
0.0160779
0.0160531
0.0160278
0.0160019
0.0159756
0.0159489
0.0159219
0.0158946
0.015867
0.0158392
0.0158113
0.0157833
0.0157551
0.0157268
0.0156985
0.0156701
0.0156417
0.0156134
0.0155851
0.0155568
0.0155286
0.0155005
0.0154724
0.0154445
0.0154167
0.015389
0.0153614
0.015334
0.0153068
0.0152797
0.0152527
0.015226
0.0151994
0.015173
0.0151468
0.0151208
0.015095
0.0150693
0.0150439
0.0150187
0.0149937
0.0149689
0.0149443
0.0149199
0.0148957
0.0148717
0.0148479
0.0148244
0.0148011
0.0147779
0.014755
0.0147323
0.0147098
0.0146875
0.0146655
0.0146436
0.0146219
0.0146005
0.0145793
0.0145582
0.0145374
0.0145168
0.0144964
0.0144761
0.0144561
0.0144363
0.0144167
0.0143973
0.014378
0.014359
0.0143402
0.0143215
0.014303
0.0142848
0.0142667
0.0142488
0.0142311
0.0142136
0.0141963
0.0141791
0.0141622
0.0141454
0.0141288
0.0141123
0.0140962
0.01408
0.0140643
0.0140484
0.014033
0.0140175
0.0140025
0.0139872
0.0139726
0.0139577
0.0139434
0.0139288
0.0139149
0.0139007
0.013887
0.0138734
0.0138599
0.013847
0.0138335
0.0138218
0.013808
0.0137979
0.0137834
0.0137759
0.0137598
0.000539162
0.000540421
0.000543531
0.000550012
0.0005593
0.00057222
0.000587265
0.000604811
0.000623974
0.000645011
0.000667349
0.000691575
0.000717127
0.00074507
0.000774844
0.000807831
0.000843876
0.000884274
0.000929685
0.000981454
0.00104035
0.00110904
0.00118779
0.00128059
0.00138804
0.00151443
0.00166102
0.00183244
0.00203016
0.00225791
0.00251685
0.00280947
0.0031353
0.00349431
0.00388402
0.00430184
0.00474309
0.00520281
0.0056757
0.00615521
0.00663722
0.00711496
0.00758538
0.00804338
0.00848684
0.00891264
0.00931979
0.00970645
0.0100726
0.0104176
0.0107418
0.0110453
0.0113289
0.0115931
0.0118387
0.0120667
0.0122778
0.0124731
0.0126534
0.0128197
0.0129727
0.0131134
0.0132425
0.0133606
0.0134689
0.0135675
0.0136574
0.0137393
0.0138135
0.0138806
0.0139412
0.0139956
0.0140445
0.0140879
0.0141267
0.0141606
0.0141904
0.0142166
0.0142389
0.0142579
0.0142738
0.0142867
0.014297
0.0143048
0.0143103
0.0143137
0.0143149
0.0143144
0.0143125
0.0143087
0.0143035
0.014297
0.0142892
0.0142803
0.0142703
0.0142594
0.0142475
0.0142348
0.0142215
0.0142072
0.0141925
0.0141772
0.0141613
0.014145
0.0141281
0.0141109
0.0140933
0.0140754
0.0140572
0.0140388
0.0140201
0.0140012
0.0139821
0.0139628
0.0139434
0.0139239
0.0139043
0.0138846
0.0138649
0.0138451
0.0138253
0.0138054
0.0137856
0.0137657
0.0137459
0.0137261
0.0137063
0.0136865
0.0136669
0.0136472
0.0136277
0.0136082
0.0135888
0.0135694
0.0135502
0.0135311
0.013512
0.0134931
0.0134742
0.0134555
0.0134369
0.0134184
0.0134
0.0133817
0.0133636
0.0133455
0.0133276
0.0133099
0.0132922
0.0132747
0.0132574
0.0132401
0.013223
0.013206
0.0131892
0.0131725
0.0131559
0.0131395
0.0131232
0.013107
0.013091
0.0130751
0.0130593
0.0130437
0.0130283
0.0130129
0.0129977
0.0129827
0.0129677
0.012953
0.0129383
0.0129239
0.0129095
0.0128953
0.0128812
0.0128673
0.0128534
0.0128398
0.0128262
0.0128129
0.0127996
0.0127866
0.0127734
0.0127607
0.0127479
0.0127355
0.0127229
0.0127108
0.0126985
0.0126866
0.0126748
0.0126631
0.0126519
0.0126402
0.01263
0.0126181
0.0126093
0.0125967
0.0125903
0.0125764
0.000538257
0.000537312
0.00053771
0.000539415
0.000543235
0.000549387
0.000557313
0.000567061
0.000578092
0.000590552
0.000603955
0.000618611
0.000634034
0.000650796
0.000668436
0.000687644
0.000708245
0.000730813
0.000755561
0.00078322
0.000813786
0.000848764
0.000887896
0.000933127
0.000984596
0.00104415
0.00111263
0.00119225
0.00128389
0.00139006
0.00151219
0.0016527
0.00181304
0.00199505
0.00220004
0.00242902
0.00268232
0.00295922
0.00325918
0.0035794
0.00391862
0.00427241
0.00463858
0.00501233
0.00539092
0.00577005
0.00614715
0.0065186
0.00688259
0.00723647
0.00757904
0.00790878
0.00822493
0.00852674
0.00881395
0.00908649
0.00934426
0.00958778
0.00981712
0.0100329
0.0102354
0.0104252
0.0106029
0.0107689
0.0109241
0.0110687
0.0112035
0.0113288
0.0114454
0.0115536
0.011654
0.0117469
0.0118331
0.0119126
0.011986
0.0120537
0.012116
0.0121733
0.0122258
0.0122739
0.0123179
0.0123579
0.0123943
0.0124273
0.0124571
0.0124839
0.0125079
0.0125292
0.0125482
0.0125649
0.0125793
0.0125918
0.0126024
0.0126112
0.0126183
0.0126239
0.0126281
0.0126309
0.0126326
0.0126327
0.0126321
0.0126306
0.0126278
0.0126242
0.0126198
0.0126146
0.0126086
0.012602
0.0125948
0.012587
0.0125786
0.0125697
0.0125604
0.0125506
0.0125404
0.0125299
0.012519
0.0125078
0.0124963
0.0124845
0.0124725
0.0124602
0.0124478
0.0124351
0.0124223
0.0124094