/*--------------------------------*- C++ -*----------------------------------*\
  =========                 |
  \\      /  F ield         | OpenFOAM: The Open Source CFD Toolbox
   \\    /   O peration     | Website:  https://openfoam.org
    \\  /    A nd           | Version:  12
     \\/     M anipulation  |
\*---------------------------------------------------------------------------*/
FoamFile
{
    format      ascii;
    class       volScalarField;
    location    "900";
    object      k;
}
// * * * * * * * * * * * * * * * * * * * * * * * * * * * * * * * * * * * * * //

dimensions      [0 2 -2 0 0 0 0];

internalField   nonuniform List<scalar> 
20000
(
0.00121539
0.00045655
0.000505718
0.000674903
0.000785906
0.000874447
0.000962157
0.00105491
0.00113211
0.00120316
0.00125063
0.00130237
0.00133568
0.00136897
0.00139723
0.00142303
0.00144267
0.00145968
0.0014732
0.00148549
0.00149474
0.00150253
0.00150863
0.00151347
0.00151753
0.00152019
0.00152214
0.00152332
0.00152363
0.00152346
0.00152295
0.00152188
0.00152035
0.00151859
0.00151647
0.00151413
0.0015117
0.00150905
0.00150613
0.0015032
0.00150005
0.00149688
0.00149358
0.00149024
0.00148688
0.00148345
0.00147994
0.00147646
0.0014729
0.00146938
0.00146584
0.00146232
0.00145876
0.00145524
0.00145174
0.00144826
0.00144478
0.00144133
0.00143791
0.00143451
0.00143114
0.0014278
0.00142447
0.00142119
0.00141792
0.0014147
0.00141151
0.00140836
0.00140523
0.00140215
0.00139909
0.00139607
0.00139308
0.00139013
0.00138721
0.00138433
0.00138148
0.00137867
0.00137589
0.00137314
0.00137043
0.00136775
0.00136511
0.0013625
0.00135992
0.00135737
0.00135486
0.00135238
0.00134992
0.0013475
0.00134511
0.00134276
0.00134043
0.00133812
0.00133585
0.00133361
0.0013314
0.00132921
0.00132706
0.00132493
0.00132282
0.00132075
0.0013187
0.00131667
0.00131467
0.0013127
0.00131075
0.00130883
0.00130693
0.00130506
0.0013032
0.00130138
0.00129957
0.00129779
0.00129603
0.00129429
0.00129257
0.00129088
0.0012892
0.00128755
0.00128591
0.0012843
0.00128271
0.00128114
0.00127958
0.00127805
0.00127653
0.00127504
0.00127356
0.0012721
0.00127065
0.00126923
0.00126782
0.00126643
0.00126506
0.0012637
0.00126236
0.00126103
0.00125972
0.00125843
0.00125715
0.00125589
0.00125464
0.00125341
0.00125219
0.00125099
0.0012498
0.00124863
0.00124747
0.00124632
0.00124519
0.00124407
0.00124296
0.00124187
0.00124079
0.00123972
0.00123866
0.00123762
0.00123659
0.00123557
0.00123456
0.00123357
0.00123259
0.00123161
0.00123065
0.0012297
0.00122876
0.00122784
0.00122692
0.00122602
0.00122512
0.00122424
0.00122337
0.0012225
0.00122165
0.00122081
0.00121998
0.00121916
0.00121835
0.00121754
0.00121674
0.00121595
0.00121518
0.00121439
0.00121364
0.00121285
0.00121213
0.00121133
0.00121065
0.00120981
0.00120922
0.00120829
0.00120781
0.00120679
0.00120637
0.00120535
0.00120493
0.00120387
0.00120353
0.00120189
0.00309521
0.00342053
0.00442796
0.00580082
0.00658983
0.0072108
0.00781014
0.0084247
0.00891406
0.00935187
0.00962768
0.00992636
0.0101069
0.0102862
0.0104342
0.010567
0.0106621
0.0107422
0.0108018
0.010855
0.0108907
0.0109189
0.0109379
0.0109502
0.0109588
0.0109599
0.0109575
0.0109514
0.0109408
0.010928
0.0109138
0.0108968
0.0108778
0.0108578
0.0108361
0.0108137
0.010791
0.0107674
0.0107427
0.0107182
0.0106927
0.0106673
0.0106415
0.0106158
0.01059
0.0105642
0.0105381
0.0105124
0.0104864
0.0104608
0.0104352
0.0104099
0.0103846
0.0103596
0.0103348
0.0103103
0.010286
0.0102619
0.0102381
0.0102146
0.0101913
0.0101683
0.0101455
0.010123
0.0101006
0.0100787
0.010057
0.0100356
0.0100144
0.00999348
0.00997282
0.00995245
0.00993233
0.00991247
0.00989288
0.00987354
0.00985446
0.00983564
0.00981706
0.00979872
0.00978066
0.00976281
0.0097452
0.00972783
0.00971068
0.00969377
0.00967708
0.00966062
0.00964437
0.00962834
0.00961252
0.00959691
0.00958151
0.0095663
0.00955131
0.0095365
0.0095219
0.00950747
0.00949326
0.00947921
0.00946537
0.00945169
0.00943819
0.00942487
0.00941173
0.00939876
0.00938594
0.00937331
0.00936081
0.00934851
0.00933633
0.00932434
0.00931247
0.00930078
0.00928922
0.00927782
0.00926655
0.00925544
0.00924445
0.00923362
0.00922291
0.00921234
0.0092019
0.0091916
0.00918141
0.00917136
0.00916144
0.00915163
0.00914195
0.00913238
0.00912293
0.0091136
0.00910438
0.00909527
0.00908628
0.00907739
0.00906862
0.00905994
0.00905138
0.00904291
0.00903455
0.00902629
0.00901813
0.00901007
0.0090021
0.00899423
0.00898645
0.00897877
0.00897118
0.00896367
0.00895626
0.00894893
0.00894169
0.00893453
0.00892746
0.00892047
0.00891357
0.00890674
0.0089
0.00889333
0.00888674
0.00888022
0.00887378
0.00886743
0.00886113
0.00885491
0.00884877
0.0088427
0.0088367
0.00883077
0.00882492
0.00881914
0.00881341
0.00880776
0.00880216
0.00879664
0.0087912
0.00878581
0.00878049
0.00877519
0.00877
0.00876476
0.0087597
0.00875452
0.00874963
0.00874445
0.00873975
0.00873445
0.00873004
0.00872449
0.00872059
0.00871454
0.00871135
0.00870468
0.0087019
0.00869519
0.00869238
0.00868543
0.00868307
0.00867263
0.00355493
0.00360064
0.00411383
0.00536335
0.006682
0.00807053
0.00935352
0.0105352
0.0114745
0.0122846
0.0128609
0.0134043
0.013794
0.0141434
0.0144337
0.0146885
0.0148832
0.0150484
0.0151794
0.0152943
0.0153812
0.0154536
0.0155101
0.0155547
0.0155909
0.0156156
0.0156325
0.0156432
0.0156466
0.0156458
0.0156416
0.0156327
0.0156201
0.0156055
0.0155878
0.0155684
0.015548
0.0155258
0.0155017
0.0154772
0.0154512
0.0154248
0.0153976
0.0153699
0.0153421
0.0153137
0.0152849
0.0152561
0.015227
0.015198
0.0151688
0.01514
0.0151108
0.0150818
0.0150531
0.0150246
0.0149961
0.0149678
0.0149398
0.014912
0.0148844
0.014857
0.0148299
0.014803
0.0147763
0.01475
0.0147239
0.0146981
0.0146726
0.0146474
0.0146224
0.0145977
0.0145733
0.0145492
0.0145253
0.0145018
0.0144785
0.0144555
0.0144328
0.0144104
0.0143883
0.0143664
0.0143448
0.0143234
0.0143023
0.0142815
0.0142609
0.0142407
0.0142206
0.0142008
0.0141813
0.014162
0.0141429
0.0141241
0.0141055
0.0140871
0.014069
0.0140511
0.0140335
0.014016
0.0139988
0.0139818
0.013965
0.0139484
0.013932
0.0139158
0.0138998
0.0138841
0.0138685
0.0138531
0.0138379
0.0138229
0.0138081
0.0137935
0.013779
0.0137647
0.0137506
0.0137367
0.0137229
0.0137093
0.0136959
0.0136826
0.0136695
0.0136566
0.0136438
0.0136312
0.0136187
0.0136064
0.0135942
0.0135822
0.0135703
0.0135586
0.013547
0.0135355
0.0135242
0.013513
0.0135019
0.013491
0.0134802
0.0134695
0.013459
0.0134486
0.0134383
0.0134281
0.013418
0.0134081
0.0133983
0.0133886
0.013379
0.0133695
0.0133602
0.0133509
0.0133417
0.0133327
0.0133238
0.0133149
0.0133062
0.0132976
0.013289
0.0132806
0.0132723
0.013264
0.0132559
0.0132478
0.0132398
0.013232
0.0132242
0.0132165
0.0132089
0.0132014
0.013194
0.0131867
0.0131794
0.0131723
0.0131652
0.0131582
0.0131513
0.0131445
0.0131377
0.0131311
0.0131245
0.0131179
0.0131114
0.0131049
0.0130987
0.0130922
0.0130861
0.0130797
0.0130738
0.0130671
0.0130619
0.0130547
0.0130503
0.0130423
0.0130386
0.0130305
0.0130267
0.0130186
0.0130149
0.0130046
0.00376345
0.00368
0.00376214
0.00416027
0.00503518
0.00623609
0.0075299
0.00891365
0.0101728
0.0113394
0.0122833
0.0131471
0.0138476
0.0144604
0.0149772
0.0154271
0.0157889
0.0160996
0.0163566
0.0165813
0.0167638
0.0169205
0.017051
0.0171614
0.0172555
0.017332
0.0173948
0.0174467
0.0174872
0.01752
0.0175451
0.0175634
0.0175755
0.017583
0.0175854
0.0175845
0.0175809
0.017574
0.0175638
0.0175521
0.0175378
0.0175222
0.0175048
0.0174862
0.0174667
0.017446
0.0174243
0.017402
0.0173788
0.0173554
0.0173313
0.0173071
0.0172822
0.0172573
0.0172323
0.0172072
0.0171818
0.0171565
0.0171312
0.0171058
0.0170805
0.0170552
0.0170299
0.0170049
0.0169797
0.0169549
0.0169302
0.0169056
0.0168812
0.016857
0.0168329
0.0168091
0.0167854
0.016762
0.0167387
0.0167157
0.0166929
0.0166703
0.0166479
0.0166258
0.0166039
0.0165822
0.0165607
0.0165395
0.0165185
0.0164977
0.0164771
0.0164568
0.0164367
0.0164168
0.0163971
0.0163777
0.0163584
0.0163394
0.0163206
0.0163021
0.0162837
0.0162655
0.0162476
0.0162299
0.0162123
0.016195
0.0161779
0.016161
0.0161442
0.0161277
0.0161113
0.0160952
0.0160792
0.0160635
0.0160479
0.0160325
0.0160172
0.0160022
0.0159873
0.0159726
0.0159581
0.0159438
0.0159296
0.0159156
0.0159017
0.015888
0.0158745
0.0158611
0.0158479
0.0158348
0.0158219
0.0158092
0.0157966
0.0157841
0.0157718
0.0157596
0.0157476
0.0157357
0.0157239
0.0157123
0.0157008
0.0156894
0.0156782
0.0156671
0.0156562
0.0156453
0.0156346
0.015624
0.0156136
0.0156032
0.015593
0.0155829
0.0155729
0.015563
0.0155532
0.0155436
0.015534
0.0155246
0.0155153
0.0155061
0.0154969
0.0154879
0.015479
0.0154702
0.0154615
0.0154529
0.0154444
0.015436
0.0154277
0.0154194
0.0154113
0.0154033
0.0153953
0.0153875
0.0153797
0.0153721
0.0153645
0.015357
0.0153496
0.0153423
0.0153351
0.015328
0.0153209
0.015314
0.015307
0.0153002
0.0152934
0.0152868
0.0152801
0.0152735
0.015267
0.0152604
0.0152541
0.0152474
0.0152417
0.0152345
0.0152296
0.0152217
0.0152176
0.0152094
0.0152054
0.0151975
0.0151935
0.0151842
0.00382063
0.00375779
0.00369076
0.00373449
0.00395228
0.00444978
0.0051963
0.00620982
0.00733306
0.00859211
0.00978014
0.0109198
0.0119283
0.0128203
0.0135942
0.0142812
0.0148613
0.0153664
0.0157984
0.0161793
0.0165007
0.0167824
0.0170244
0.0172357
0.0174199
0.0175776
0.0177134
0.0178312
0.0179314
0.0180187
0.0180928
0.018156
0.0182094
0.0182546
0.0182918
0.0183229
0.0183482
0.0183686
0.0183835
0.0183952
0.0184025
0.018407
0.0184083
0.0184072
0.0184041
0.0183985
0.0183911
0.0183822
0.0183716
0.01836
0.0183471
0.0183333
0.0183183
0.0183028
0.0182866
0.0182697
0.0182522
0.0182344
0.0182161
0.0181975
0.0181785
0.0181593
0.0181398
0.0181202
0.0181003
0.0180804
0.0180604
0.0180404
0.0180203
0.0180002
0.01798
0.01796
0.0179399
0.0179199
0.0178999
0.01788
0.0178602
0.0178406
0.0178209
0.0178015
0.0177821
0.0177629
0.0177438
0.0177248
0.017706
0.0176873
0.0176687
0.0176504
0.0176321
0.017614
0.0175961
0.0175783
0.0175607
0.0175433
0.017526
0.0175088
0.0174918
0.017475
0.0174584
0.0174419
0.0174256
0.0174095
0.0173935
0.0173776
0.017362
0.0173465
0.0173311
0.0173159
0.0173009
0.0172861
0.0172713
0.0172568
0.0172424
0.0172281
0.017214
0.0172001
0.0171863
0.0171727
0.0171591
0.0171458
0.0171326
0.0171195
0.0171066
0.0170938
0.0170812
0.0170687
0.0170563
0.0170441
0.017032
0.01702
0.0170082
0.0169965
0.0169849
0.0169735
0.0169622
0.016951
0.0169399
0.016929
0.0169181
0.0169074
0.0168969
0.0168864
0.016876
0.0168658
0.0168557
0.0168457
0.0168358
0.016826
0.0168163
0.0168067
0.0167972
0.0167879
0.0167786
0.0167695
0.0167604
0.0167515
0.0167426
0.0167338
0.0167252
0.0167166
0.0167082
0.0166998
0.0166915
0.0166833
0.0166752
0.0166672
0.0166593
0.0166515
0.0166438
0.0166361
0.0166286
0.0166211
0.0166137
0.0166065
0.0165992
0.0165922
0.0165851
0.0165782
0.0165713
0.0165646
0.0165578
0.0165512
0.0165445
0.0165381
0.0165315
0.0165252
0.0165188
0.0165125
0.0165062
0.0164999
0.0164941
0.0164874
0.0164824
0.016475
0.0164709
0.0164631
0.0164592
0.0164518
0.0164481
0.0164398
0.00384397
0.0038311
0.00376467
0.00367991
0.00368608
0.00376936
0.0039848
0.00442435
0.00502132
0.0058457
0.00679564
0.00785381
0.00892858
0.00997683
0.0109522
0.0118584
0.0126706
0.0133992
0.0140404
0.0146137
0.015113
0.0155554
0.0159435
0.0162863
0.0165883
0.0168534
0.0170869
0.0172938
0.0174753
0.0176373
0.0177792
0.017905
0.0180159
0.0181141
0.0182002
0.0182767
0.0183434
0.0184028
0.018454
0.0184994
0.0185381
0.0185718
0.0186006
0.0186248
0.0186456
0.0186626
0.0186764
0.0186874
0.0186955
0.0187016
0.0187054
0.0187073
0.0187072
0.0187059
0.0187031
0.0186989
0.0186935
0.0186872
0.0186799
0.0186716
0.0186626
0.0186528
0.0186424
0.0186314
0.0186198
0.0186078
0.0185954
0.0185826
0.0185694
0.018556
0.0185423
0.0185283
0.0185141
0.0184998
0.0184853
0.0184707
0.018456
0.0184412
0.0184262
0.0184113
0.0183963
0.0183813
0.0183663
0.0183513
0.0183362
0.0183212
0.0183063
0.0182913
0.0182764
0.0182616
0.0182468
0.018232
0.0182174
0.0182027
0.0181882
0.0181738
0.0181594
0.0181451
0.018131
0.0181169
0.0181029
0.018089
0.0180752
0.0180615
0.0180479
0.0180344
0.0180211
0.0180078
0.0179946
0.0179816
0.0179687
0.0179558
0.0179431
0.0179305
0.017918
0.0179057
0.0178934
0.0178813
0.0178692
0.0178573
0.0178455
0.0178338
0.0178222
0.0178107
0.0177994
0.0177881
0.017777
0.0177659
0.017755
0.0177442
0.0177335
0.0177228
0.0177123
0.017702
0.0176917
0.0176815
0.0176714
0.0176614
0.0176515
0.0176418
0.0176321
0.0176225
0.0176131
0.0176037
0.0175944
0.0175852
0.0175761
0.0175671
0.0175583
0.0175495
0.0175407
0.0175321
0.0175236
0.0175152
0.0175068
0.0174986
0.0174904
0.0174823
0.0174743
0.0174664
0.0174586
0.0174508
0.0174432
0.0174356
0.0174281
0.0174207
0.0174134
0.0174061
0.017399
0.0173919
0.0173849
0.017378
0.0173712
0.0173644
0.0173577
0.0173512
0.0173446
0.0173383
0.0173318
0.0173256
0.0173193
0.0173132
0.0173069
0.0173011
0.0172949
0.0172892
0.017283
0.0172774
0.0172714
0.0172657
0.0172601
0.0172541
0.0172493
0.0172427
0.0172387
0.0172318
0.0172282
0.0172215
0.0172182
0.0172112
0.00384402
0.003884
0.00384175
0.00374986
0.00368656
0.00363986
0.00365561
0.00373535
0.00391535
0.0042546
0.00472738
0.00536272
0.00612773
0.00699778
0.00791516
0.00885353
0.00976628
0.0106373
0.0114432
0.0121891
0.0128634
0.0134749
0.0140241
0.0145183
0.0149617
0.0153582
0.0157131
0.0160326
0.0163178
0.0165754
0.0168048
0.0170117
0.0171974
0.0173648
0.0175149
0.0176508
0.0177722
0.0178823
0.0179807
0.0180701
0.0181498
0.0182218
0.0182867
0.0183446
0.0183969
0.0184436
0.0184855
0.0185229
0.018556
0.0185857
0.0186117
0.0186347
0.0186546
0.0186721
0.0186873
0.0187002
0.0187111
0.0187204
0.0187278
0.0187337
0.0187381
0.0187412
0.0187431
0.0187437
0.0187434
0.0187423
0.0187401
0.0187372
0.0187336
0.0187292
0.0187243
0.0187188
0.0187127
0.0187062
0.0186992
0.0186918
0.0186841
0.018676
0.0186676
0.0186589
0.01865
0.0186409
0.0186315
0.018622
0.0186123
0.0186024
0.0185924
0.0185823
0.018572
0.0185617
0.0185513
0.0185408
0.0185303
0.0185197
0.0185091
0.0184984
0.0184877
0.0184771
0.0184664
0.0184557
0.018445
0.0184343
0.0184236
0.018413
0.0184024
0.0183918
0.0183812
0.0183707
0.0183603
0.0183498
0.0183395
0.0183291
0.0183189
0.0183086
0.0182985
0.0182884
0.0182783
0.0182683
0.0182584
0.0182486
0.0182388
0.0182291
0.0182194
0.0182098
0.0182003
0.0181909
0.0181815
0.0181722
0.018163
0.0181539
0.0181448
0.0181358
0.0181269
0.0181181
0.0181093
0.0181006
0.018092
0.0180834
0.018075
0.0180666
0.0180582
0.01805
0.0180418
0.0180337
0.0180257
0.0180178
0.0180099
0.0180021
0.0179944
0.0179867
0.0179792
0.0179717
0.0179642
0.0179569
0.0179496
0.0179424
0.0179353
0.0179282
0.0179212
0.0179143
0.0179074
0.0179006
0.0178939
0.0178872
0.0178806
0.0178741
0.0178677
0.0178613
0.017855
0.0178488
0.0178426
0.0178365
0.0178305
0.0178246
0.0178186
0.0178128
0.017807
0.0178015
0.0177958
0.0177903
0.0177847
0.0177794
0.0177738
0.0177686
0.0177631
0.0177581
0.0177526
0.0177477
0.0177423
0.0177374
0.0177324
0.0177272
0.0177228
0.0177172
0.0177135
0.0177076
0.0177044
0.0176987
0.0176959
0.0176903
0.00383059
0.00390649
0.00388325
0.00382034
0.00374798
0.00367328
0.00362241
0.00359148
0.00360453
0.0036641
0.00380012
0.00404759
0.0043988
0.00487576
0.00546152
0.00615067
0.00690939
0.0077138
0.00852596
0.00932931
0.0100994
0.0108288
0.0115087
0.0121384
0.0127176
0.0132477
0.0137305
0.0141719
0.0145722
0.0149383
0.0152696
0.0155715
0.015846
0.0160962
0.0163238
0.016532
0.0167206
0.0168937
0.017051
0.0171954
0.0173269
0.0174474
0.0175579
0.0176584
0.0177508
0.0178354
0.017913
0.0179839
0.0180489
0.0181085
0.0181628
0.0182127
0.0182581
0.0182997
0.0183378
0.0183726
0.0184041
0.018433
0.0184592
0.018483
0.0185044
0.0185239
0.0185413
0.0185569
0.0185709
0.0185834
0.0185944
0.0186041
0.0186126
0.0186199
0.0186261
0.0186313
0.0186356
0.0186391
0.0186417
0.0186436
0.0186448
0.0186453
0.0186452
0.0186446
0.0186435
0.0186418
0.0186397
0.0186372
0.0186343
0.0186311
0.0186274
0.0186235
0.0186193
0.0186148
0.01861
0.0186051
0.0185998
0.0185944
0.0185888
0.0185831
0.0185771
0.0185711
0.0185649
0.0185585
0.0185521
0.0185456
0.018539
0.0185323
0.0185255
0.0185186
0.0185117
0.0185048
0.0184978
0.0184907
0.0184837
0.0184766
0.0184694
0.0184623
0.0184551
0.018448
0.0184408
0.0184336
0.0184265
0.0184193
0.0184121
0.018405
0.0183979
0.0183908
0.0183837
0.0183766
0.0183696
0.0183625
0.0183555
0.0183486
0.0183416
0.0183347
0.0183279
0.018321
0.0183142
0.0183075
0.0183008
0.0182941
0.0182874
0.0182808
0.0182743
0.0182678
0.0182613
0.0182549
0.0182485
0.0182422
0.0182359
0.0182296
0.0182235
0.0182173
0.0182112
0.0182052
0.0181992
0.0181932
0.0181873
0.0181815
0.0181757
0.0181699
0.0181642
0.0181586
0.018153
0.0181474
0.0181419
0.0181365
0.018131
0.0181257
0.0181204
0.0181152
0.0181099
0.0181048
0.0180997
0.0180947
0.0180897
0.0180849
0.0180799
0.0180752
0.0180704
0.0180658
0.018061
0.0180566
0.0180519
0.0180475
0.0180428
0.0180386
0.018034
0.0180299
0.0180253
0.0180213
0.0180167
0.0180127
0.0180084
0.0180042
0.0180004
0.017996
0.0179928
0.017988
0.0179854
0.0179808
0.0179787
0.0179746
0.00381068
0.00390556
0.00389799
0.00386147
0.00380187
0.00373315
0.0036692
0.00360866
0.00356658
0.00353699
0.00354413
0.00358241
0.00367387
0.003847
0.00409416
0.00443535
0.00486827
0.00539261
0.00599068
0.00664807
0.00733969
0.00804688
0.00874969
0.00943499
0.0100923
0.0107164
0.0113014
0.0118492
0.0123567
0.0128287
0.0132637
0.0136653
0.0140353
0.0143765
0.0146902
0.0149802
0.015246
0.0154917
0.0157177
0.0159267
0.0161191
0.0162971
0.0164617
0.0166132
0.0167538
0.0168838
0.0170044
0.0171159
0.0172194
0.0173154
0.0174043
0.0174869
0.0175635
0.0176346
0.0177007
0.0177622
0.0178192
0.0178723
0.0179216
0.0179675
0.01801
0.0180496
0.0180864
0.0181205
0.0181522
0.0181816
0.018209
0.0182343
0.0182577
0.0182794
0.0182994
0.018318
0.0183351
0.0183509
0.0183654
0.0183787
0.018391
0.0184022
0.0184123
0.0184217
0.0184301
0.0184378
0.0184446
0.0184508
0.0184563
0.0184611
0.0184654
0.0184691
0.0184722
0.0184749
0.0184771
0.0184789
0.0184802
0.0184812
0.0184818
0.018482
0.0184819
0.0184816
0.0184809
0.0184799
0.0184788
0.0184773
0.0184757
0.0184738
0.0184718
0.0184695
0.0184671
0.0184645
0.0184618
0.0184589
0.0184559
0.0184528
0.0184496
0.0184462
0.0184428
0.0184392
0.0184356
0.0184319
0.0184281
0.0184243
0.0184203
0.0184164
0.0184124
0.0184083
0.0184042
0.0184
0.0183958
0.0183916
0.0183873
0.0183831
0.0183787
0.0183744
0.0183701
0.0183657
0.0183614
0.018357
0.0183526
0.0183482
0.0183438
0.0183395
0.0183351
0.0183307
0.0183263
0.018322
0.0183176
0.0183133
0.0183089
0.0183046
0.0183003
0.018296
0.0182917
0.0182875
0.0182832
0.018279
0.0182748
0.0182707
0.0182665
0.0182624
0.0182583
0.0182542
0.0182501
0.0182461
0.0182421
0.0182381
0.0182341
0.0182302
0.0182263
0.0182225
0.0182186
0.0182149
0.0182111
0.0182074
0.0182037
0.0182001
0.0181964
0.0181929
0.0181893
0.0181859
0.0181824
0.0181791
0.0181755
0.0181723
0.0181688
0.0181657
0.0181621
0.0181592
0.0181556
0.0181527
0.0181491
0.0181462
0.0181429
0.0181399
0.0181369
0.0181336
0.0181312
0.0181277
0.0181258
0.0181225
0.018121
0.0181188
0.00379119
0.00388824
0.00389568
0.00387645
0.00383417
0.00377757
0.00372036
0.00365885
0.00360394
0.00355035
0.00351384
0.00348269
0.00348296
0.00350334
0.00355788
0.00366926
0.00383641
0.00407008
0.00437589
0.00475592
0.00520488
0.00571595
0.00627478
0.00686727
0.00747691
0.00809233
0.00869881
0.009291
0.00985933
0.010403
0.0109174
0.0114025
0.0118575
0.012284
0.0126818
0.0130539
0.0133996
0.0137221
0.0140217
0.0143012
0.0145609
0.0148029
0.0150286
0.0152381
0.0154337
0.015616
0.0157863
0.015945
0.0160935
0.0162321
0.0163616
0.0164827
0.016596
0.0167021
0.0168015
0.0168947
0.016982
0.017064
0.0171409
0.0172131
0.0172808
0.0173446
0.0174044
0.0174607
0.0175135
0.0175632
0.0176101
0.0176541
0.0176955
0.0177345
0.0177711
0.0178057
0.0178382
0.0178688
0.0178976
0.0179247
0.0179502
0.0179742
0.0179968
0.018018
0.018038
0.0180569
0.0180745
0.0180911
0.0181067
0.0181214
0.0181351
0.018148
0.0181601
0.0181714
0.018182
0.0181919
0.0182012
0.0182098
0.0182179
0.0182254
0.0182324
0.0182389
0.0182449
0.0182504
0.0182556
0.0182603
0.0182647
0.0182686
0.0182723
0.0182756
0.0182786
0.0182813
0.0182837
0.0182858
0.0182877
0.0182894
0.0182908
0.018292
0.018293
0.0182938
0.0182945
0.0182949
0.0182952
0.0182953
0.0182953
0.0182951
0.0182948
0.0182944
0.0182938
0.0182931
0.0182924
0.0182915
0.0182905
0.0182894
0.0182883
0.018287
0.0182857
0.0182843
0.0182829
0.0182814
0.0182798
0.0182781
0.0182764
0.0182747
0.0182729
0.0182711
0.0182692
0.0182673
0.0182654
0.0182634
0.0182614
0.0182594
0.0182573
0.0182552
0.0182531
0.018251
0.0182489
0.0182467
0.0182446
0.0182424
0.0182402
0.018238
0.0182358
0.0182336
0.0182314
0.0182291
0.0182269
0.0182247
0.0182225
0.0182202
0.018218
0.0182158
0.0182136
0.0182114
0.0182092
0.0182071
0.0182049
0.0182028
0.0182007
0.0181986
0.0181965
0.0181945
0.0181924
0.0181905
0.0181883
0.0181865
0.0181843
0.0181825
0.0181802
0.0181785
0.0181763
0.0181746
0.0181723
0.0181706
0.0181684
0.0181667
0.0181648
0.0181629
0.0181614
0.0181594
0.0181583
0.0181565
0.0181558
0.0181554
0.00377572
0.00385951
0.00388213
0.00387263
0.00384669
0.00380342
0.00375605
0.00370205
0.00365016
0.00359463
0.00354622
0.00349818
0.00346292
0.00343531
0.00342203
0.00343073
0.0034597
0.00352381
0.00363131
0.00378327
0.00398783
0.00425048
0.00457039
0.00494704
0.00537308
0.00584291
0.00634311
0.00686599
0.00739814
0.0079328
0.00846075
0.00897705
0.00947614
0.00995642
0.0104145
0.0108512
0.0112642
0.0116551
0.0120232
0.0123703
0.0126968
0.0130035
0.0132922
0.0135627
0.013817
0.0140557
0.0142802
0.0144908
0.014689
0.0148754
0.0150504
0.0152151
0.0153702
0.0155161
0.0156537
0.0157832
0.0159055
0.0160209
0.0161297
0.0162325
0.0163295
0.0164214
0.0165081
0.0165902
0.0166679
0.0167414
0.0168111
0.0168771
0.0169397
0.0169989
0.0170552
0.0171085
0.0171592
0.0172072
0.0172529
0.0172962
0.0173374
0.0173766
0.0174137
0.0174491
0.0174828
0.0175148
0.0175452
0.0175742
0.0176017
0.017628
0.0176529
0.0176767
0.0176993
0.0177209
0.0177414
0.017761
0.0177796
0.0177973
0.0178142
0.0178302
0.0178455
0.0178601
0.017874
0.0178873
0.0178999
0.0179119
0.0179233
0.0179342
0.0179445
0.0179544
0.0179637
0.0179727
0.0179811
0.0179892
0.0179969
0.0180042
0.0180111
0.0180177
0.018024
0.0180299
0.0180356
0.0180409
0.018046
0.0180508
0.0180553
0.0180597
0.0180638
0.0180676
0.0180713
0.0180747
0.018078
0.018081
0.0180839
0.0180866
0.0180892
0.0180916
0.0180938
0.018096
0.0180979
0.0180998
0.0181015
0.0181031
0.0181046
0.0181059
0.0181072
0.0181084
0.0181095
0.0181104
0.0181113
0.0181122
0.0181129
0.0181136
0.0181142
0.0181147
0.0181151
0.0181155
0.0181158
0.0181161
0.0181163
0.0181165
0.0181166
0.0181167
0.0181167
0.0181167
0.0181167
0.0181166
0.0181164
0.0181163
0.0181161
0.0181159
0.0181156
0.0181153
0.018115
0.0181147
0.0181144
0.0181141
0.0181137
0.0181134
0.0181129
0.0181126
0.0181121
0.0181118
0.0181113
0.0181111
0.0181105
0.0181102
0.0181096
0.0181093
0.0181086
0.0181084
0.0181077
0.0181074
0.0181066
0.0181063
0.0181055
0.0181053
0.0181046
0.0181043
0.0181038
0.0181034
0.0181033
0.0181032
0.0181035
0.0181051
0.00376521
0.00382738
0.00385896
0.00385672
0.00384317
0.00381327
0.00377567
0.00373071
0.00368524
0.00363539
0.0035878
0.00353893
0.00349335
0.00345227
0.00341583
0.00338956
0.00336801
0.00336753
0.00337895
0.00340957
0.003472
0.00356663
0.00369588
0.00386782
0.00408349
0.00434599
0.00465243
0.00500244
0.00538865
0.00580624
0.00624647
0.00670288
0.00716673
0.00763301
0.00809481
0.00854932
0.00899167
0.0094204
0.00983296
0.0102288
0.0106075
0.0109681
0.0113119
0.0116379
0.0119475
0.0122407
0.0125188
0.0127818
0.0130309
0.0132668
0.0134899
0.013701
0.0139009
0.01409
0.0142692
0.0144389
0.0145996
0.0147522
0.0148966
0.0150337
0.0151638
0.0152873
0.0154046
0.0155161
0.015622
0.0157227
0.0158186
0.0159097
0.0159965
0.0160792
0.0161579
0.016233
0.0163045
0.0163728
0.0164379
0.0165001
0.0165594
0.0166161
0.0166703
0.016722
0.0167715
0.0168189
0.0168642
0.0169075
0.016949
0.0169887
0.0170267
0.0170632
0.0170981
0.0171315
0.0171636
0.0171944
0.0172239
0.0172522
0.0172794
0.0173054
0.0173305
0.0173545
0.0173776
0.0173998
0.0174211
0.0174416
0.0174612
0.0174802
0.0174983
0.0175158
0.0175326
0.0175488
0.0175644
0.0175794
0.0175938
0.0176077
0.017621
0.0176339
0.0176463
0.0176582
0.0176697
0.0176808
0.0176914
0.0177017
0.0177116
0.0177211
0.0177303
0.0177392
0.0177477
0.017756
0.0177639
0.0177716
0.0177789
0.0177861
0.0177929
0.0177996
0.017806
0.0178122
0.0178181
0.0178239
0.0178294
0.0178348
0.0178399
0.0178449
0.0178498
0.0178544
0.0178589
0.0178632
0.0178674
0.0178715
0.0178754
0.0178792
0.0178829
0.0178864
0.0178898
0.0178931
0.0178963
0.0178994
0.0179024
0.0179053
0.0179081
0.0179108
0.0179134
0.0179159
0.0179183
0.0179207
0.017923
0.0179252
0.0179274
0.0179295
0.0179315
0.0179335
0.0179353
0.0179372
0.017939
0.0179408
0.0179425
0.0179442
0.0179458
0.0179474
0.0179489
0.0179506
0.017952
0.0179536
0.0179549
0.0179564
0.0179576
0.0179591
0.0179601
0.0179616
0.0179626
0.0179641
0.0179649
0.0179663
0.017967
0.0179685
0.0179692
0.0179707
0.0179715
0.017973
0.017974
0.0179757
0.0179771
0.017981
0.0037587
0.00379755
0.00382984
0.00383366
0.00382762
0.00380974
0.00378128
0.00374524
0.00370688
0.00366417
0.00362108
0.0035765
0.00353167
0.00348907
0.00344608
0.00340877
0.00337321
0.00334535
0.0033245
0.00330955
0.00331136
0.00332338
0.00335166
0.00340573
0.00348335
0.00358885
0.00372592
0.00389851
0.00410623
0.00435081
0.00463009
0.00494257
0.00528306
0.00564794
0.00603084
0.00642739
0.0068314
0.00723875
0.00764485
0.00804623
0.0084407
0.0088251
0.009199
0.00956014
0.00990858
0.0102432
0.0105646
0.010872
0.0111662
0.0114471
0.0117153
0.0119709
0.0122148
0.012447
0.0126683
0.0128791
0.0130798
0.0132712
0.0134534
0.0136272
0.0137926
0.0139505
0.0141009
0.0142445
0.0143814
0.0145121
0.014637
0.0147561
0.0148699
0.0149787
0.0150827
0.0151822
0.0152773
0.0153684
0.0154555
0.015539
0.015619
0.0156956
0.0157691
0.0158395
0.0159071
0.015972
0.0160342
0.016094
0.0161514
0.0162065
0.0162595
0.0163105
0.0163595
0.0164067
0.0164521
0.0164957
0.0165378
0.0165783
0.0166173
0.0166549
0.0166911
0.016726
0.0167597
0.0167922
0.0168235
0.0168538
0.016883
0.0169112
0.0169384
0.0169647
0.0169901
0.0170146
0.0170384
0.0170613
0.0170835
0.017105
0.0171258
0.0171458
0.0171653
0.0171841
0.0172024
0.01722
0.0172371
0.0172537
0.0172698
0.0172853
0.0173004
0.017315
0.0173292
0.017343
0.0173563
0.0173693
0.0173819
0.0173941
0.0174059
0.0174174
0.0174286
0.0174395
0.01745
0.0174603
0.0174703
0.0174799
0.0174894
0.0174985
0.0175074
0.0175161
0.0175245
0.0175327
0.0175407
0.0175485
0.0175561
0.0175635
0.0175706
0.0175777
0.0175845
0.0175911
0.0175976
0.0176039
0.0176101
0.0176161
0.017622
0.0176277
0.0176333
0.0176387
0.0176441
0.0176493
0.0176543
0.0176593
0.0176641
0.0176689
0.0176735
0.017678
0.0176825
0.0176868
0.0176911
0.0176953
0.0176993
0.0177034
0.0177073
0.0177112
0.0177149
0.0177187
0.0177223
0.0177261
0.0177295
0.0177331
0.0177364
0.0177399
0.017743
0.0177464
0.0177493
0.0177527
0.0177554
0.0177588
0.0177613
0.0177646
0.0177671
0.0177704
0.0177729
0.0177763
0.0177787
0.0177824
0.017785
0.0177915
0.00375413
0.00377375
0.00379919
0.00380679
0.00380453
0.00379516
0.00377559
0.0037475
0.00371606
0.00368045
0.00364296
0.00360382
0.00356301
0.00352294
0.00348154
0.00344245
0.00340351
0.00336708
0.00333509
0.00330542
0.00328195
0.00326446
0.0032528
0.00325454
0.00326445
0.00328737
0.00332967
0.00339083
0.0034721
0.00357829
0.00371064
0.00387131
0.00406025
0.00427829
0.00452392
0.0047957
0.00509045
0.005405
0.00573566
0.00607802
0.00642913
0.00678428
0.00714135
0.00749658
0.00784836
0.00819411
0.00853285
0.00886288
0.00918374
0.00949455
0.00979515
0.0100851
0.0103644
0.0106331
0.0108913
0.0111393
0.011377
0.0116053
0.0118239
0.0120335
0.0122343
0.0124267
0.012611
0.0127876
0.0129568
0.0131189
0.0132744
0.0134232
0.013566
0.0137029
0.0138341
0.0139601
0.0140809
0.0141969
0.0143083
0.0144152
0.014518
0.0146167
0.0147116
0.0148028
0.0148905
0.014975
0.0150562
0.0151344
0.0152097
0.0152822
0.0153521
0.0154195
0.0154844
0.015547
0.0156074
0.0156657
0.0157219
0.0157762
0.0158286
0.0158793
0.0159282
0.0159755
0.0160213
0.0160655
0.0161083
0.0161497
0.0161897
0.0162285
0.016266
0.0163023
0.0163375
0.0163716
0.0164047
0.0164368
0.0164678
0.016498
0.0165272
0.0165556
0.0165831
0.0166098
0.0166358
0.016661
0.0166854
0.0167092
0.0167323
0.0167548
0.0167766
0.0167978
0.0168185
0.0168385
0.0168581
0.0168771
0.0168956
0.0169136
0.0169312
0.0169483
0.0169649
0.0169811
0.0169969
0.0170123
0.0170273
0.017042
0.0170562
0.0170702
0.0170837
0.017097
0.0171099
0.0171226
0.0171349
0.0171469
0.0171587
0.0171702
0.0171814
0.0171924
0.0172031
0.0172136
0.0172238
0.0172338
0.0172436
0.0172532
0.0172626
0.0172717
0.0172807
0.0172895
0.0172981
0.0173065
0.0173148
0.0173229
0.0173308
0.0173385
0.0173462
0.0173536
0.0173609
0.0173681
0.0173752
0.0173821
0.0173889
0.0173956
0.0174021
0.0174086
0.0174149
0.0174212
0.0174273
0.0174335
0.0174393
0.0174453
0.0174509
0.0174567
0.0174621
0.0174678
0.0174729
0.0174785
0.0174834
0.0174889
0.0174935
0.0174989
0.0175033
0.0175088
0.017513
0.0175187
0.0175227
0.0175287
0.0175326
0.017542
0.00375061
0.00375655
0.00377091
0.00377848
0.00377796
0.00377301
0.00376073
0.00373981
0.00371456
0.00368542
0.00365367
0.00362001
0.00358418
0.00354805
0.00351038
0.00347314
0.00343581
0.00339875
0.00336374
0.00332935
0.00329756
0.0032695
0.00324371
0.00322298
0.00320775
0.00319648
0.00319695
0.00320336
0.00321914
0.00325013
0.00329511
0.00335577
0.00343406
0.00353257
0.00365238
0.00379453
0.00395964
0.00414769
0.00435839
0.00458983
0.00484103
0.00510871
0.00539122
0.00568496
0.00598782
0.00629649
0.00660892
0.00692231
0.00723506
0.00754507
0.00785122
0.00815209
0.00844687
0.00873468
0.00901501
0.00928753
0.00955175
0.00980788
0.0100555
0.010295
0.010526
0.010749
0.010964
0.0111712
0.0113709
0.0115632
0.0117484
0.0119267
0.0120984
0.0122636
0.0124227
0.0125758
0.0127233
0.0128653
0.0130021
0.0131338
0.0132608
0.0133831
0.0135009
0.0136145
0.013724
0.0138297
0.0139315
0.0140298
0.0141247
0.0142163
0.0143047
0.0143901
0.0144726
0.0145523
0.0146294
0.0147039
0.0147759
0.0148456