/*--------------------------------*- C++ -*----------------------------------*\
  =========                 |
  \\      /  F ield         | OpenFOAM: The Open Source CFD Toolbox
   \\    /   O peration     | Website:  https://openfoam.org
    \\  /    A nd           | Version:  12
     \\/     M anipulation  |
\*---------------------------------------------------------------------------*/
FoamFile
{
    format      ascii;
    class       volScalarField;
    location    "900";
    object      nut;
}
// * * * * * * * * * * * * * * * * * * * * * * * * * * * * * * * * * * * * * //

dimensions      [0 2 -1 0 0 0 0];

internalField   nonuniform List<scalar> 
20000
(
1.76054e-06
6.6133e-07
7.32551e-07
9.77621e-07
1.13841e-06
1.26667e-06
1.39372e-06
1.52808e-06
1.63991e-06
1.74282e-06
1.81159e-06
1.88654e-06
1.93478e-06
1.983e-06
2.02393e-06
2.06132e-06
2.08976e-06
2.11441e-06
2.13398e-06
2.15178e-06
2.16518e-06
2.17647e-06
2.18531e-06
2.19231e-06
2.19819e-06
2.20205e-06
2.20487e-06
2.20658e-06
2.20703e-06
2.20679e-06
2.20605e-06
2.2045e-06
2.20229e-06
2.19974e-06
2.19666e-06
2.19328e-06
2.18975e-06
2.18592e-06
2.18169e-06
2.17744e-06
2.17287e-06
2.16828e-06
2.16351e-06
2.15867e-06
2.1538e-06
2.14883e-06
2.14375e-06
2.1387e-06
2.13355e-06
2.12846e-06
2.12332e-06
2.11823e-06
2.11307e-06
2.10797e-06
2.1029e-06
2.09785e-06
2.09282e-06
2.08782e-06
2.08287e-06
2.07795e-06
2.07306e-06
2.06822e-06
2.0634e-06
2.05865e-06
2.05391e-06
2.04925e-06
2.04462e-06
2.04006e-06
2.03553e-06
2.03106e-06
2.02663e-06
2.02226e-06
2.01793e-06
2.01365e-06
2.00942e-06
2.00525e-06
2.00112e-06
1.99705e-06
1.99302e-06
1.98904e-06
1.98512e-06
1.98124e-06
1.97741e-06
1.97363e-06
1.96989e-06
1.9662e-06
1.96256e-06
1.95897e-06
1.95541e-06
1.95191e-06
1.94845e-06
1.94503e-06
1.94166e-06
1.93832e-06
1.93503e-06
1.93179e-06
1.92858e-06
1.92541e-06
1.92229e-06
1.9192e-06
1.91616e-06
1.91315e-06
1.91018e-06
1.90725e-06
1.90435e-06
1.9015e-06
1.89867e-06
1.89589e-06
1.89314e-06
1.89042e-06
1.88774e-06
1.88509e-06
1.88247e-06
1.87989e-06
1.87734e-06
1.87482e-06
1.87234e-06
1.86988e-06
1.86745e-06
1.86506e-06
1.86269e-06
1.86036e-06
1.85805e-06
1.85577e-06
1.85352e-06
1.8513e-06
1.84911e-06
1.84694e-06
1.8448e-06
1.84268e-06
1.84059e-06
1.83852e-06
1.83649e-06
1.83447e-06
1.83248e-06
1.83051e-06
1.82857e-06
1.82665e-06
1.82476e-06
1.82288e-06
1.82103e-06
1.8192e-06
1.8174e-06
1.81561e-06
1.81385e-06
1.81211e-06
1.81038e-06
1.80868e-06
1.807e-06
1.80534e-06
1.8037e-06
1.80208e-06
1.80047e-06
1.79889e-06
1.79733e-06
1.79578e-06
1.79425e-06
1.79274e-06
1.79125e-06
1.78977e-06
1.78831e-06
1.78687e-06
1.78545e-06
1.78404e-06
1.78264e-06
1.78127e-06
1.77991e-06
1.77857e-06
1.77724e-06
1.77593e-06
1.77464e-06
1.77336e-06
1.77209e-06
1.77084e-06
1.76961e-06
1.76839e-06
1.76718e-06
1.766e-06
1.76482e-06
1.76365e-06
1.7625e-06
1.76135e-06
1.76023e-06
1.75908e-06
1.758e-06
1.75686e-06
1.75582e-06
1.75465e-06
1.75367e-06
1.75245e-06
1.75159e-06
1.75025e-06
1.74956e-06
1.74808e-06
1.74748e-06
1.74599e-06
1.74539e-06
1.74385e-06
1.74335e-06
1.74098e-06
3.0855e-05
2.66406e-05
2.94445e-05
3.91734e-05
4.69955e-05
5.46655e-05
6.26761e-05
7.10202e-05
7.83363e-05
8.51941e-05
9.04086e-05
9.59328e-05
9.99118e-05
0.000103959
0.00010753
0.00011082
0.000113591
0.000116099
0.000118294
0.000120328
0.000122077
0.000123666
0.000125078
0.000126351
0.000127513
0.000128528
0.000129454
0.000130283
0.000131014
0.000131675
0.000132281
0.000132813
0.000133288
0.000133717
0.000134096
0.000134436
0.000134748
0.000135022
0.00013526
0.000135476
0.00013566
0.000135827
0.000135968
0.000136093
0.000136201
0.000136292
0.000136365
0.000136428
0.000136474
0.000136513
0.000136539
0.000136559
0.000136565
0.000136566
0.00013656
0.000136547
0.000136527
0.000136502
0.000136472
0.000136437
0.000136397
0.000136353
0.000136306
0.000136255
0.0001362
0.000136144
0.000136084
0.000136023
0.000135958
0.000135893
0.000135825
0.000135756
0.000135685
0.000135613
0.00013554
0.000135466
0.000135391
0.000135315
0.000135239
0.000135161
0.000135084
0.000135006
0.000134928
0.000134849
0.000134771
0.000134692
0.000134613
0.000134534
0.000134455
0.000134376
0.000134297
0.000134218
0.00013414
0.000134061
0.000133983
0.000133905
0.000133827
0.00013375
0.000133673
0.000133596
0.00013352
0.000133444
0.000133369
0.000133294
0.00013322
0.000133146
0.000133072
0.000132999
0.000132926
0.000132854
0.000132783
0.000132712
0.000132641
0.000132571
0.000132502
0.000132433
0.000132364
0.000132297
0.000132229
0.000132163
0.000132096
0.000132031
0.000131966
0.000131901
0.000131837
0.000131774
0.000131711
0.000131649
0.000131587
0.000131526
0.000131466
0.000131406
0.000131346
0.000131287
0.000131229
0.000131171
0.000131114
0.000131057
0.000131001
0.000130945
0.00013089
0.000130836
0.000130782
0.000130728
0.000130675
0.000130623
0.000130571
0.000130519
0.000130469
0.000130418
0.000130368
0.000130319
0.00013027
0.000130222
0.000130174
0.000130127
0.00013008
0.000130033
0.000129987
0.000129942
0.000129897
0.000129852
0.000129808
0.000129765
0.000129722
0.000129679
0.000129637
0.000129595
0.000129554
0.000129513
0.000129473
0.000129433
0.000129393
0.000129355
0.000129316
0.000129278
0.00012924
0.000129204
0.000129167
0.000129131
0.000129094
0.000129059
0.000129023
0.000128988
0.000128953
0.000128919
0.000128885
0.000128849
0.000128817
0.000128779
0.000128752
0.000128709
0.00012869
0.000128638
0.000128626
0.000128573
0.000128561
0.000128507
0.000128501
0.000128389
0.000184607
6.36392e-05
4.743e-05
5.26725e-05
6.47022e-05
8.11569e-05
9.89959e-05
0.000117443
0.000134261
0.000150409
0.000164004
0.000177853
0.000189159
0.000200381
0.000210638
0.000220257
0.000228704
0.000236591
0.00024373
0.000250427
0.000256419
0.000262
0.000267113
0.000271852
0.000276261
0.000280293
0.000284029
0.000287497
0.00029069
0.000293667
0.000296462
0.000299033
0.000301424
0.000303665
0.000305743
0.000307691
0.000309535
0.000311247
0.000312842
0.000314352
0.000315755
0.000317082
0.000318323
0.000319493
0.000320601
0.000321637
0.000322612
0.000323534
0.000324398
0.00032522
0.000325992
0.000326727
0.000327412
0.000328067
0.000328687
0.000329274
0.000329828
0.000330354
0.000330853
0.000331326
0.000331774
0.000332198
0.0003326
0.000332983
0.000333343
0.000333688
0.000334015
0.000334326
0.000334621
0.000334901
0.000335167
0.00033542
0.000335659
0.000335888
0.000336105
0.000336311
0.000336507
0.000336695
0.000336871
0.00033704
0.000337201
0.000337353
0.000337498
0.000337636
0.000337767
0.000337891
0.000338009
0.000338122
0.000338228
0.00033833
0.000338426
0.000338517
0.000338604
0.000338686
0.000338764
0.000338838
0.000338908
0.000338974
0.000339037
0.000339096
0.000339153
0.000339206
0.000339256
0.000339304
0.000339349
0.000339391
0.000339431
0.000339469
0.000339504
0.000339537
0.000339568
0.000339598
0.000339625
0.000339651
0.000339675
0.000339698
0.000339718
0.000339738
0.000339756
0.000339773
0.000339788
0.000339802
0.000339815
0.000339828
0.000339838
0.000339849
0.000339857
0.000339866
0.000339873
0.000339879
0.000339885
0.00033989
0.000339894
0.000339897
0.0003399
0.000339902
0.000339904
0.000339905
0.000339906
0.000339906
0.000339905
0.000339904
0.000339903
0.000339901
0.000339899
0.000339897
0.000339894
0.000339891
0.000339888
0.000339885
0.000339881
0.000339877
0.000339872
0.000339868
0.000339863
0.000339858
0.000339853
0.000339848
0.000339843
0.000339838
0.000339832
0.000339826
0.00033982
0.000339815
0.000339809
0.000339803
0.000339797
0.000339791
0.000339785
0.00033978
0.000339774
0.000339769
0.000339763
0.000339758
0.000339752
0.000339748
0.000339742
0.00033974
0.000339733
0.000339731
0.000339723
0.000339722
0.000339713
0.000339714
0.000339702
0.000339705
0.000339692
0.000339695
0.000339681
0.000339682
0.000339674
0.000339666
0.000339673
0.000339649
0.000339669
0.000339643
0.000339661
0.000339646
0.000339663
0.000339583
0.000741315
0.000184421
0.000105279
7.55217e-05
7.64252e-05
8.80961e-05
0.000104065
0.000124333
0.000145381
0.000167348
0.000187676
0.000208489
0.000227415
0.000245868
0.000263214
0.000279648
0.000294317
0.000308336
0.000321212
0.000333396
0.000344443
0.000354884
0.000364551
0.000373624
0.000382128
0.000390008
0.000397387
0.000404311
0.000410769
0.000416859
0.000422569
0.000427927
0.000432965
0.000437722
0.000442184
0.000446407
0.000450431
0.000454204
0.000457767
0.000461162
0.000464359
0.000467404
0.000470284
0.000473026
0.000475644
0.000478122
0.000480478
0.000482728
0.000484864
0.000486912
0.000488859
0.000490727
0.000492496
0.0004942
0.000495832
0.000497393
0.000498885
0.000500317
0.000501691
0.000503009
0.000504273
0.000505486
0.000506651
0.000507771
0.000508843
0.000509881
0.000510877
0.000511838
0.000512761
0.000513651
0.000514508
0.000515335
0.000516132
0.000516902
0.000517645
0.000518362
0.000519055
0.000519725
0.000520372
0.000520997
0.000521604
0.000522189
0.000522756
0.000523305
0.000523837
0.000524352
0.000524851
0.000525335
0.000525803
0.000526258
0.000526699
0.000527128
0.000527543
0.000527946
0.000528338
0.000528719
0.000529088
0.000529447
0.000529797
0.000530136
0.000530467
0.000530788
0.000531102
0.000531406
0.000531703
0.000531991
0.000532273
0.000532547
0.000532814
0.000533074
0.000533328
0.000533576
0.000533817
0.000534053
0.000534283
0.000534508
0.000534727
0.000534941
0.00053515
0.000535355
0.000535554
0.00053575
0.00053594
0.000536127
0.00053631
0.000536489
0.000536663
0.000536834
0.000537002
0.000537166
0.000537326
0.000537484
0.000537638
0.000537789
0.000537937
0.000538082
0.000538224
0.000538363
0.0005385
0.000538634
0.000538766
0.000538896
0.000539023
0.000539147
0.00053927
0.00053939
0.000539508
0.000539624
0.000539739
0.000539851
0.000539961
0.00054007
0.000540176
0.000540282
0.000540385
0.000540486
0.000540587
0.000540685
0.000540782
0.000540878
0.000540972
0.000541064
0.000541156
0.000541247
0.000541335
0.000541423
0.000541509
0.000541595
0.000541679
0.000541763
0.000541845
0.000541929
0.000542008
0.00054209
0.000542167
0.000542248
0.000542323
0.000542406
0.000542478
0.00054256
0.000542628
0.000542709
0.000542772
0.000542856
0.000542914
0.000543
0.000543053
0.000543139
0.000543187
0.00054327
0.000543323
0.000543398
0.000543465
0.000543519
0.000543605
0.000543651
0.000543736
0.000543802
0.000543877
0.000543897
0.00150222
0.000491318
0.000263243
0.000158022
0.000116021
0.0001032
0.000105629
0.000117599
0.00013463
0.000157062
0.0001806
0.000205647
0.000230086
0.000253953
0.000276853
0.000299144
0.0003198
0.000339568
0.000358193
0.000375996
0.000392285
0.000408013
0.000422678
0.000436637
0.000449778
0.000462051
0.000473656
0.000484615
0.000494914
0.000504701
0.000513891
0.000522594
0.000530836
0.000538654
0.000546044
0.000553078
0.000559759
0.00056611
0.000572132
0.000577895
0.000583352
0.000588572
0.000593533
0.000598282
0.000602833
0.000607159
0.000611299
0.000615267
0.000619055
0.000622699
0.000626182
0.000629533
0.000632727
0.000635817
0.000638784
0.000641634
0.000644374
0.000647014
0.000649557
0.000652005
0.000654365
0.000656639
0.000658833
0.00066095
0.000662989
0.000664967
0.000666874
0.00066872
0.000670502
0.000672228
0.000673896
0.000675514
0.000677078
0.000678595
0.000680065
0.00068149
0.000682872
0.000684215
0.000685516
0.00068678
0.000688009
0.000689201
0.00069036
0.000691486
0.000692581
0.000693647
0.000694683
0.000695693
0.000696674
0.000697631
0.000698561
0.000699469
0.000700352
0.000701213
0.000702053
0.000702872
0.00070367
0.00070445
0.000705211
0.000705954
0.000706679
0.000707387
0.000708079
0.000708755
0.000709415
0.000710061
0.000710692
0.00071131
0.000711913
0.000712504
0.000713082
0.000713648
0.000714202
0.000714745
0.000715276
0.000715796
0.000716306
0.000716806
0.000717295
0.000717775
0.000718245
0.000718707
0.00071916
0.000719604
0.00072004
0.000720468
0.000720887
0.000721299
0.000721704
0.000722101
0.000722492
0.000722875
0.000723251
0.000723621
0.000723985
0.000724343
0.000724694
0.00072504
0.00072538
0.000725714
0.000726043
0.000726367
0.000726685
0.000726998
0.000727307
0.000727611
0.00072791
0.000728204
0.000728495
0.00072878
0.000729062
0.000729339
0.000729613
0.000729882
0.000730148
0.000730409
0.000730667
0.000730922
0.000731173
0.000731421
0.000731664
0.000731905
0.000732143
0.000732378
0.000732609
0.000732838
0.000733063
0.000733287
0.000733506
0.000733725
0.00073394
0.000734155
0.000734364
0.000734576
0.000734778
0.000734986
0.000735185
0.000735393
0.000735586
0.000735791
0.000735975
0.000736178
0.000736354
0.000736556
0.000736724
0.000736929
0.000737086
0.00073729
0.000737437
0.000737637
0.000737787
0.000737977
0.000738138
0.000738307
0.000738486
0.000738643
0.000738817
0.000739004
0.000739156
0.000739334
0.00202514
0.000999441
0.000588399
0.000356111
0.000242857
0.000176817
0.000145621
0.000134459
0.000134978
0.000145398
0.000161854
0.000183403
0.00020758
0.000233364
0.00025947
0.000285859
0.000311558
0.000336624
0.000360595
0.000383849
0.000405658
0.000426644
0.000446471
0.000465518
0.000483398
0.000500257
0.000516403
0.000531721
0.000546225
0.0005601
0.000573146
0.000585615
0.000597487
0.000608794
0.000619546
0.000629831
0.000639593
0.000648956
0.000657873
0.000666433
0.000674572
0.000682381
0.000689844
0.000696981
0.000703842
0.000710407
0.000716709
0.00072276
0.000728563
0.000734155
0.000739517
0.000744685
0.000749632
0.000754434
0.00075905
0.000763495
0.000767783
0.000771925
0.000775925
0.000779785
0.000783515
0.00078712
0.000790605
0.000793975
0.000797232
0.000800398
0.000803456
0.000806423
0.000809295
0.000812081
0.000814782
0.000817405
0.000819949
0.000822421
0.000824821
0.000827153
0.00082942
0.000831626
0.000833766
0.000835853
0.000837885
0.00083986
0.000841783
0.000843657
0.000845482
0.000847261
0.000848995
0.000850686
0.000852335
0.000853943
0.000855512
0.000857044
0.000858539
0.000859999
0.000861425
0.000862818
0.000864177
0.000865508
0.00086681
0.000868081
0.000869325
0.000870541
0.000871733
0.000872897
0.000874038
0.000875155
0.000876248
0.000877319
0.000878368
0.000879396
0.000880403
0.000881391
0.000882359
0.000883309
0.000884239
0.000885153
0.000886049
0.000886928
0.000887791
0.000888638
0.000889469
0.000890286
0.000891087
0.000891876
0.000892649
0.00089341
0.000894157
0.000894891
0.000895613
0.000896322
0.00089702
0.000897706
0.000898381
0.000899045
0.000899698
0.00090034
0.000900973
0.000901595
0.000902208
0.000902811
0.000903405
0.00090399
0.000904566
0.000905134
0.000905693
0.000906243
0.000906786
0.000907321
0.000907848
0.000908368
0.000908881
0.000909385
0.000909883
0.000910375
0.000910859
0.000911337
0.000911808
0.000912274
0.000912733
0.000913186
0.000913632
0.000914073
0.000914508
0.000914939
0.000915362
0.000915782
0.000916195
0.000916605
0.000917008
0.000917409
0.000917803
0.000918197
0.000918582
0.000918967
0.00091934
0.000919719
0.000920085
0.000920461
0.000920818
0.000921188
0.000921532
0.000921895
0.000922226
0.000922587
0.000922905
0.000923266
0.00092357
0.000923926
0.000924214
0.000924563
0.000924849
0.000925189
0.00092548
0.0009258
0.0009261
0.00092641
0.000926696
0.000927048
0.00092729
0.000927692
0.00226807
0.00154544
0.0010427
0.000695815
0.000495035
0.000353904
0.000271943
0.000215505
0.000184332
0.000169863
0.000166785
0.000173444
0.000187056
0.000206239
0.000228939
0.000254334
0.000280958
0.000308327
0.000335497
0.00036257
0.000388752
0.000414269
0.000438786
0.00046251
0.000485224
0.000506856
0.000527621
0.00054752
0.000566535
0.000584799
0.000601964
0.000618578
0.000634437
0.00064959
0.000664082
0.000677994
0.000691195
0.000703912
0.000716056
0.000727753
0.000738908
0.000749654
0.000759956
0.000769819
0.00077933
0.000788467
0.000797266
0.000805728
0.000813874
0.000821738
0.000829296
0.000836595
0.000843616
0.000850413
0.000856979
0.000863316
0.000869445
0.00087538
0.000881116
0.000886666
0.000892036
0.000897238
0.000902275
0.000907153
0.000911882
0.000916484
0.000920934
0.000925257
0.000929452
0.000933527
0.000937485
0.000941333
0.000945072
0.000948709
0.000952248
0.00095569
0.000959041
0.000962305
0.000965479
0.000968579
0.000971597
0.000974537
0.000977404
0.0009802
0.000982928
0.00098559
0.000988187
0.000990724
0.0009932
0.000995619
0.000997981
0.00100029
0.00100255
0.00100475
0.00100691
0.00100902
0.00101108
0.0010131
0.00101508
0.00101701
0.0010189
0.00102076
0.00102257
0.00102435
0.0010261
0.0010278
0.00102948
0.00103112
0.00103273
0.00103431
0.00103586
0.00103738
0.00103887
0.00104033
0.00104177
0.00104318
0.00104456
0.00104592
0.00104725
0.00104857
0.00104985
0.00105112
0.00105237
0.00105359
0.00105479
0.00105597
0.00105714
0.00105828
0.00105941
0.00106051
0.0010616
0.00106267
0.00106373
0.00106477
0.00106579
0.00106679
0.00106778
0.00106876
0.00106972
0.00107067
0.0010716
0.00107252
0.00107342
0.00107431
0.00107519
0.00107606
0.00107691
0.00107776
0.00107859
0.00107941
0.00108021
0.00108101
0.0010818
0.00108257
0.00108334
0.00108409
0.00108484
0.00108557
0.0010863
0.00108701
0.00108772
0.00108842
0.00108911
0.00108979
0.00109046
0.00109112
0.00109178
0.00109243
0.00109307
0.0010937
0.00109433
0.00109495
0.00109556
0.00109617
0.00109676
0.00109736
0.00109794
0.00109853
0.0010991
0.00109968
0.00110023
0.0011008
0.00110133
0.00110189
0.0011024
0.00110296
0.00110345
0.001104
0.00110448
0.00110501
0.00110547
0.001106
0.00110646
0.00110697
0.00110743
0.00110794
0.00110836
0.00110892
0.00110927
0.00110996
0.00235558
0.00196654
0.00150155
0.00111646
0.000855033
0.000645518
0.000506381
0.000397106
0.000323138
0.000267757
0.000232067
0.000212137
0.000203317
0.000204463
0.000213164
0.000228252
0.000247971
0.000271301
0.000296721
0.000323734
0.000351276
0.00037907
0.000406583
0.000433713
0.000460233
0.000485947
0.000510833
0.000534944
0.000558141
0.000580629
0.000602069
0.000622763
0.000642671
0.000661793
0.000680222
0.000697937
0.00071476
0.000731129
0.000746793
0.000761925
0.000776396
0.000790425
0.000803878
0.000816785
0.000829276
0.000841306
0.000852924
0.000864112
0.000874922
0.000885369
0.000895425
0.000905156
0.000914552
0.000923644
0.000932449
0.000940963
0.000949203
0.000957195
0.000964927
0.000972423
0.000979688
0.000986738
0.000993574
0.00100021
0.00100665
0.00101292
0.001019
0.00102491
0.00103065
0.00103624
0.00104168
0.00104697
0.00105212
0.00105713
0.00106201
0.00106677
0.00107141
0.00107592
0.00108032
0.00108463
0.00108882
0.00109291
0.00109691
0.00110081
0.00110461
0.00110833
0.00111197
0.00111552
0.00111899
0.00112238
0.0011257
0.00112894
0.00113211
0.00113522
0.00113826
0.00114123
0.00114414
0.00114699
0.00114979
0.00115252
0.0011552
0.00115783
0.00116041
0.00116293
0.00116541
0.00116783
0.00117021
0.00117255
0.00117484
0.00117709
0.0011793
0.00118147
0.0011836
0.00118569
0.00118774
0.00118976
0.00119174
0.00119368
0.0011956
0.00119748
0.00119933
0.00120115
0.00120293
0.00120469
0.00120642
0.00120812
0.00120979
0.00121144
0.00121306
0.00121466
0.00121623
0.00121777
0.00121929
0.00122079
0.00122227
0.00122372
0.00122515
0.00122656
0.00122796
0.00122932
0.00123067
0.001232
0.00123332
0.00123461
0.00123588
0.00123714
0.00123838
0.0012396
0.00124081
0.001242
0.00124317
0.00124433
0.00124547
0.0012466
0.00124771
0.00124881
0.00124989
0.00125096
0.00125202
0.00125306
0.00125409
0.00125511
0.00125611
0.0012571
0.00125808
0.00125905
0.00126
0.00126095
0.00126188
0.00126281
0.00126372
0.00126462
0.00126551
0.0012664
0.00126727
0.00126813
0.00126898
0.00126984
0.00127067
0.00127151
0.00127232
0.00127314
0.00127392
0.00127473
0.00127549
0.00127629
0.00127702
0.00127781
0.00127851
0.00127928
0.00127996
0.00128073
0.00128139
0.00128214
0.00128278
0.00128354
0.00128413
0.00128496
0.00128543
0.00128648
0.00237523
0.00222151
0.00187429
0.0015246
0.00125201
0.00100903
0.00082892
0.000675725
0.000559765
0.000463256
0.000390883
0.000332946
0.000291236
0.000264209
0.000247941
0.000241737
0.000243866
0.000253125
0.000267931
0.000287314
0.000309908
0.000334894
0.000361342
0.000388693
0.000416449
0.000444238
0.000471715
0.000498845
0.000525325
0.000551294
0.000576446
0.000600872
0.00062455
0.000647479
0.000669646
0.000691155
0.000711758
0.000731766
0.000751029
0.000769714
0.000787647
0.000805156
0.000821874
0.000838011
0.000853707
0.000868843
0.000883504
0.000897639
0.000911364
0.000924628
0.000937416
0.00094983
0.00096185
0.00097349
0.000984785
0.000995722
0.00100634
0.00101664
0.00102662
0.00103632
0.00104573
0.00105489
0.00106377
0.00107242
0.00108081
0.00108898
0.00109694
0.00110467
0.00111219
0.00111952
0.00112666
0.00113361
0.00114039
0.00114699
0.00115343
0.00115971
0.00116584
0.00117181
0.00117764
0.00118334
0.0011889
0.00119433
0.00119963
0.00120482
0.00120988
0.00121483
0.00121967
0.00122441
0.00122904
0.00123357
0.001238
0.00124234
0.00124659
0.00125075
0.00125483
0.00125881
0.00126272
0.00126656
0.00127032
0.001274
0.00127761
0.00128115
0.00128462
0.00128802
0.00129137
0.00129465
0.00129786
0.00130102
0.00130413
0.00130717
0.00131016
0.0013131
0.00131599
0.00131882
0.00132161
0.00132435
0.00132704
0.00132969
0.00133229
0.00133485
0.00133737
0.00133985
0.00134229
0.00134468
0.00134704
0.00134936
0.00135165
0.0013539
0.00135611
0.00135829
0.00136044
0.00136256
0.00136464
0.00136669
0.00136871
0.0013707
0.00137267
0.0013746
0.00137651
0.00137839
0.00138024
0.00138206
0.00138387
0.00138564
0.00138739
0.00138912
0.00139082
0.00139251
0.00139416
0.0013958
0.00139742
0.00139901
0.00140058
0.00140213
0.00140367
0.00140518
0.00140667
0.00140815
0.0014096
0.00141104
0.00141246
0.00141386
0.00141525
0.00141662
0.00141797
0.0014193
0.00142062
0.00142193
0.00142321
0.00142449
0.00142575
0.001427
0.00142823
0.00142945
0.00143065
0.00143184
0.00143302
0.00143419
0.00143535
0.0014365
0.00143762
0.00143875
0.00143984
0.00144094
0.001442
0.00144309
0.00144412
0.00144519
0.00144618
0.00144722
0.00144818
0.00144922
0.00145014
0.00145118
0.00145205
0.0014531
0.00145389
0.00145504
0.00145568
0.00145714
0.00237155
0.00234608
0.0021319
0.00185881
0.00161665
0.00137797
0.00118509
0.00101026
0.000866914
0.000740532
0.000637262
0.00054604
0.000474096
0.000412522
0.0003639
0.000328706
0.000304137
0.000289285
0.000283254
0.000284855
0.000292884
0.000306389
0.000324197
0.000345373
0.000369018
0.000394471
0.000420978
0.000448236
0.000475693
0.000503264
0.000530586
0.000557557
0.000584043
0.000610019
0.000635346
0.000660146
0.000684161
0.000707575
0.000730257
0.000752363
0.000773717
0.000794547
0.00081469
0.00083415
0.000853083
0.000871415
0.000889236
0.000906452
0.000923274
0.000939485
0.000955165
0.000970463
0.0009853
0.000999685
0.00101367
0.00102723
0.00104044
0.00105327
0.0010657
0.00107781
0.00108958
0.00110105
0.00111219
0.00112306
0.00113361
0.00114391
0.00115394
0.0011637
0.00117321
0.00118248
0.00119152
0.00120035
0.00120895
0.00121734
0.00122553
0.00123353
0.00124134
0.00124897
0.00125642
0.0012637
0.00127081
0.00127777
0.00128457
0.00129122
0.00129772
0.00130408
0.00131031
0.0013164
0.00132237
0.00132821
0.00133393
0.00133953
0.00134502
0.0013504
0.00135567
0.00136084
0.0013659
0.00137087
0.00137574
0.00138052
0.00138521
0.00138981
0.00139432
0.00139875
0.0014031
0.00140737
0.00141156
0.00141568
0.00141973
0.0014237
0.00142761
0.00143145
0.00143522
0.00143893
0.00144257
0.00144616
0.00144968
0.00145315
0.00145656
0.00145991
0.00146321
0.00146646
0.00146966
0.0014728
0.0014759
0.00147895
0.00148195
0.00148491
0.00148782
0.00149069
0.00149351
0.00149629
0.00149904
0.00150174
0.0015044
0.00150703
0.00150962
0.00151217
0.00151468
0.00151716
0.00151961
0.00152202
0.0015244
0.00152674
0.00152906
0.00153134
0.00153359
0.00153582
0.00153801
0.00154018
0.00154231
0.00154442
0.0015465
0.00154856
0.00155059
0.00155259
0.00155457
0.00155653
0.00155846
0.00156036
0.00156225
0.00156411
0.00156594
0.00156776
0.00156955
0.00157133
0.00157308
0.00157481
0.00157652
0.00157821
0.00157988
0.00158154
0.00158317
0.00158479
0.00158639
0.00158798
0.00158954
0.0015911
0.00159263
0.00159415
0.00159565
0.00159714
0.0015986
0.00160005
0.00160147
0.0016029
0.00160429
0.00160569
0.00160702
0.0016084
0.00160968
0.00161105
0.00161227
0.00161365
0.0016148
0.00161621
0.00161724
0.00161876
0.0016196
0.00162156
0.00236341
0.0023893
0.00228615
0.00209781
0.00190988
0.00170385
0.00152212
0.00134869
0.00119771
0.00105823
0.000937267
0.000826371
0.000731069
0.000644842
0.000570339
0.000506569
0.00045191
0.00040826
0.000375256
0.000350943
0.000335441
0.000327978
0.000327511
0.000333242
0.000344234
0.000359659
0.000378511
0.000400176
0.000423811
0.000448977
0.000475105
0.000501863
0.000528882
0.000556024
0.000582985
0.000609791
0.000636158
0.000662135
0.000687556
0.000712512
0.000736852
0.000760661
0.000783905
0.00080649
0.000828529
0.000849959
0.000870871
0.000891163
0.000910987
0.000930251
0.000948941
0.000967154
0.000984889
0.00100213
0.00101893
0.00103524
0.00105119
0.00106668
0.00108169
0.00109639
0.0011107
0.00112465
0.00113822
0.00115148
0.00116437
0.00117698
0.00118927
0.00120123
0.00121291
0.00122432
0.00123545
0.00124633
0.00125694
0.00126731
0.00127744
0.00128734
0.00129702
0.00130648
0.00131572
0.00132477
0.00133361
0.00134227
0.00135074
0.00135903
0.00136715
0.00137509
0.00138287
0.0013905
0.00139796
0.00140528
0.00141244
0.00141947
0.00142636
0.00143311
0.00143974
0.00144624
0.00145261
0.00145886
0.001465
0.00147102
0.00147693
0.00148274
0.00148844
0.00149403
0.00149953
0.00150493
0.00151023
0.00151545
0.00152057
0.00152561
0.00153056
0.00153543
0.00154021
0.00154492
0.00154955
0.0015541
0.00155859
0.00156299
0.00156733
0.0015716
0.0015758
0.00157994
0.00158401
0.00158802
0.00159197
0.00159586
0.00159969
0.00160347
0.00160719
0.00161085
0.00161446
0.00161802
0.00162153
0.00162498
0.00162839
0.00163175
0.00163506
0.00163833
0.00164155
0.00164473
0.00164786
0.00165096
0.00165401
0.00165702
0.00165999
0.00166292
0.00166581
0.00166866
0.00167148
0.00167426
0.00167701
0.00167972
0.0016824
0.00168504
0.00168765
0.00169023
0.00169278
0.00169529
0.00169778
0.00170023
0.00170265
0.00170505
0.00170741
0.00170975
0.00171206
0.00171435
0.0017166
0.00171884
0.00172104
0.00172322
0.00172538
0.00172751
0.00172962
0.00173171
0.00173377
0.00173581
0.00173783
0.00173983
0.00174181
0.00174377
0.00174571
0.00174763
0.00174951
0.00175138
0.00175323
0.00175506
0.00175686
0.00175866
0.00176039
0.00176216
0.00176382
0.00176558
0.00176716
0.00176894
0.00177042
0.00177224
0.00177356
0.00177552
0.00177661
0.00177912
0.00235738
0.00239321
0.00236236
0.00224901
0.00211996
0.00196203
0.00180792
0.00165282
0.00151013
0.00137348
0.00124949
0.0011325
0.00102602
0.000927375
0.000837319
0.000755557
0.000679727
0.000614664
0.000555715
0.000504246
0.000463006
0.00042983
0.000404398
0.000386864
0.000376689
0.000373095
0.000375415
0.000383024
0.00039505
0.000410833
0.000429613
0.000450828
0.000473828
0.000498248
0.000523575
0.000549618
0.00057599
0.000602568
0.000629091
0.000655512
0.000681676
0.000707515
0.00073302
0.000758046
0.000782638
0.000806711
0.00083033
0.000853398
0.000875991
0.000898081
0.000919631
0.000940673
0.000961234
0.000981284
0.00100088
0.00101997
0.00103863
0.00105686
0.00107458
0.00109192
0.00110883
0.00112536
0.00114148
0.00115724
0.00117259
0.00118766
0.00120232
0.00121661
0.00123062
0.00124431
0.00125769
0.00127077
0.00128355
0.00129606
0.00130827
0.00132024
0.00133196
0.00134339
0.0013546
0.00136557
0.00137631
0.00138683
0.00139713
0.00140723
0.00141711
0.0014268
0.00143629
0.00144561
0.00145473
0.00146368
0.00147245
0.00148106
0.0014895
0.00149778
0.00150591
0.00151389
0.00152172
0.00152941
0.00153696
0.00154437
0.00155166
0.00155881
0.00156584
0.00157274
0.00157953
0.0015862
0.00159275
0.0015992
0.00160553
0.00161177
0.0016179
0.00162393
0.00162986
0.00163569
0.00164143
0.00164709
0.00165265
0.00165812
0.00166351
0.00166882
0.00167404
0.00167919
0.00168426
0.00168925
0.00169417
0.00169901
0.00170379
0.00170849
0.00171313
0.0017177
0.0017222
0.00172664
0.00173102
0.00173534
0.0017396
0.0017438
0.00174794
0.00175202
0.00175605
0.00176003
0.00176395
0.00176782
0.00177164
0.00177541
0.00177913
0.0017828
0.00178643
0.00179001
0.00179354
0.00179703
0.00180048
0.00180388
0.00180724
0.00181056
0.00181384
0.00181708
0.00182027
0.00182343
0.00182656
0.00182964
0.00183269
0.0018357
0.00183868
0.00184162
0.00184453
0.0018474
0.00185024
0.00185305
0.00185583
0.00185857
0.00186129
0.00186397
0.00186663
0.00186926
0.00187186
0.00187443
0.00187697
0.00187949
0.00188198
0.00188446
0.00188689
0.00188931
0.00189169
0.00189406
0.00189638
0.00189869
0.00190095
0.00190323
0.00190541
0.00190765
0.00190974
0.00191197
0.00191396
0.00191621
0.00191807
0.00192037
0.00192203
0.00192449
0.00192589
0.00192904
0.00235431
0.00238301
0.00238918
0.00233281
0.00225397
0.00214691
0.00202868
0.00190203
0.00177872
0.00165613
0.00154022
0.00142819
0.00132245
0.00122217
0.00112683
0.00103783
0.000953378
0.000875114
0.000802314
0.000733611
0.000673455
0.000617457
0.000568182
0.000527039
0.000492848
0.000465189
0.000444693
0.000430886
0.000423249
0.00042135
0.000424607
0.000432464
0.000444209
0.000459333
0.000477176
0.000497308
0.000519189
0.000542471
0.000566752
0.000591768
0.000617286
0.000643062
0.000669014
0.000694925
0.000720752
0.000746349
0.000771714
0.000796737
0.000821418
0.000845725
0.000869619
0.000893074
0.000916107
0.00093868
0.000960821
0.000982498
0.00100373
0.00102455
0.00104489
0.00106481
0.0010843
0.00110339
0.00112205
0.00114033
0.00115819
0.00117571
0.00119284
0.00120957
0.00122596
0.00124202
0.00125772
0.00127311
0.00128816
0.00130292
0.00131734
0.00133152
0.00134537
0.0013589
0.00137221
0.00138524
0.00139801
0.00141053
0.00142281
0.00143484
0.00144664
0.00145821
0.00146956
0.00148071
0.00149162
0.00150234
0.00151286
0.00152319
0.00153333
0.00154329
0.00155306
0.00156267
0.0015721
0.00158137
0.00159046
0.00159941
0.00160821
0.00161684
0.00162534
0.00163369
0.0016419
0.00164997
0.00165791
0.00166572
0.00167341
0.00168097
0.00168841
0.00169573
0.00170293
0.00171002
0.00171701
0.00172388
0.00173065
0.00173731
0.00174388
0.00175035
0.00175671
0.00176299
0.00176917
0.00177526
0.00178127
0.00178719
0.00179302
0.00179877
0.00180444
0.00181003
0.00181554
0.00182097
0.00182633
0.00183162
0.00183683
0.00184198
0.00184706
0.00185206
0.00185701
0.00186188
0.0018667
0.00187145
0.00187614
0.00188077
0.00188534
0.00188985
0.00189431
0.00189871