/*--------------------------------*- C++ -*----------------------------------*\
  =========                 |
  \\      /  F ield         | OpenFOAM: The Open Source CFD Toolbox
   \\    /   O peration     | Website:  https://openfoam.org
    \\  /    A nd           | Version:  12
     \\/     M anipulation  |
\*---------------------------------------------------------------------------*/
FoamFile
{
    format      ascii;
    class       volScalarField;
    location    "900";
    object      p;
}
// * * * * * * * * * * * * * * * * * * * * * * * * * * * * * * * * * * * * * //

dimensions      [0 2 -2 0 0 0 0];

internalField   nonuniform List<scalar> 
20000
(
0.26145
0.140182
0.113876
0.111999
0.10964
0.107621
0.106265
0.105093
0.104041
0.103011
0.102017
0.101074
0.100165
0.0993018
0.0984768
0.0976789
0.0969
0.0961251
0.0953646
0.0946265
0.0938941
0.0931687
0.0924555
0.091751
0.0910567
0.0903645
0.0896816
0.0890012
0.0883293
0.0876584
0.086996
0.0863351
0.0856797
0.0850273
0.0843784
0.0837333
0.0830934
0.0824553
0.0818208
0.0811893
0.08056
0.0799354
0.0793118
0.078693
0.0780748
0.0774609
0.0768481
0.0762397
0.075632
0.0750285
0.0744261
0.0738269
0.0732294
0.0726348
0.0720421
0.071452
0.0708639
0.0702776
0.0696941
0.0691123
0.0685329
0.0679552
0.0673797
0.0668062
0.0662342
0.0656647
0.0650967
0.064531
0.0639667
0.0634046
0.0628439
0.0622852
0.061728
0.0611729
0.0606192
0.0600674
0.0595171
0.0589684
0.0584214
0.0578757
0.057332
0.0567895
0.0562488
0.0557094
0.0551716
0.0546352
0.0541002
0.0535667
0.0530345
0.0525039
0.0519745
0.0514466
0.05092
0.0503947
0.0498707
0.049348
0.0488266
0.0483063
0.0477875
0.0472698
0.0467534
0.0462382
0.0457242
0.0452113
0.0446997
0.0441892
0.0436798
0.0431716
0.0426643
0.0421584
0.0416534
0.0411496
0.0406468
0.0401452
0.0396444
0.0391449
0.0386462
0.0381487
0.037652
0.0371565
0.0366618
0.0361683
0.0356756
0.035184
0.0346932
0.0342034
0.0337145
0.0332266
0.0327396
0.0322535
0.0317682
0.0312838
0.0308004
0.0303178
0.0298361
0.0293552
0.0288752
0.0283959
0.0279176
0.02744
0.0269633
0.0264874
0.0260123
0.025538
0.0250644
0.0245917
0.0241197
0.0236485
0.0231781
0.0227084
0.0222396
0.0217714
0.021304
0.0208373
0.0203714
0.0199062
0.0194417
0.0189779
0.0185148
0.0180525
0.0175908
0.0171298
0.0166695
0.01621
0.015751
0.0152928
0.0148353
0.0143784
0.0139223
0.0134667
0.0130119
0.0125577
0.0121042
0.0116513
0.0111993
0.0107477
0.0102971
0.00984681
0.00939778
0.00894879
0.00850147
0.00805364
0.00760817
0.0071615
0.00671824
0.00627249
0.00583184
0.00538682
0.00494949
0.00450473
0.00407167
0.00362686
0.00319909
0.00275408
0.00233291
0.00188771
0.00147525
0.00102294
0.000634606
0.000115047
0.225035
0.138187
0.114546
0.112453
0.109905
0.107801
0.106405
0.105208
0.104136
0.103091
0.102086
0.101134
0.100217
0.0993483
0.0985182
0.0977162
0.0969337
0.0961557
0.0953927
0.0946524
0.0939179
0.0931909
0.0924762
0.0917703
0.0910747
0.0903815
0.0896975
0.0890163
0.0883436
0.0876718
0.0870088
0.0863473
0.0856913
0.0850384
0.0843889
0.0837434
0.0831031
0.0824647
0.0818298
0.0811979
0.0805683
0.0799434
0.0793195
0.0787004
0.078082
0.0774678
0.0768549
0.0762462
0.0756383
0.0750346
0.074432
0.0738326
0.0732351
0.0726402
0.0720474
0.0714572
0.0708689
0.0702825
0.0696989
0.0691169
0.0685374
0.0679596
0.067384
0.0668104
0.0662383
0.0656687
0.0651006
0.0645349
0.0639705
0.0634083
0.0628475
0.0622887
0.0617315
0.0611762
0.0606225
0.0600706
0.0595202
0.0589715
0.0584245
0.0578787
0.0573349
0.0567924
0.0562516
0.0557121
0.0551743
0.0546378
0.0541028
0.0535693
0.0530371
0.0525064
0.0519769
0.051449
0.0509223
0.050397
0.049873
0.0493502
0.0488288
0.0483085
0.0477896
0.0472719
0.0467555
0.0462402
0.0457262
0.0452133
0.0447016
0.0441911
0.0436816
0.0431734
0.0426661
0.0421602
0.0416551
0.0411514
0.0406485
0.0401468
0.039646
0.0391465
0.0386478
0.0381502
0.0376536
0.037158
0.0366634
0.0361698
0.0356771
0.0351854
0.0346946
0.0342048
0.0337159
0.033228
0.0327409
0.0322548
0.0317695
0.0312851
0.0308017
0.030319
0.0298373
0.0293564
0.0288764
0.0283971
0.0279188
0.0274412
0.0269645
0.0264885
0.0260134
0.0255391
0.0250655
0.0245928
0.0241208
0.0236496
0.0231792
0.0227095
0.0222406
0.0217724
0.021305
0.0208383
0.0203724
0.0199071
0.0194426
0.0189788
0.0185157
0.0180534
0.0175917
0.0171307
0.0166704
0.0162108
0.0157519
0.0152937
0.0148361
0.0143793
0.0139231
0.0134675
0.0130127
0.0125585
0.012105
0.0116521
0.0112
0.0107485
0.0102979
0.00984756
0.00939852
0.00894952
0.0085022
0.00805436
0.00760889
0.0071622
0.00671895
0.00627319
0.00583253
0.0053875
0.00495018
0.00450542
0.00407235
0.00362755
0.00319977
0.00275479
0.0023336
0.00188844
0.001476
0.0010237
0.000635472
0.00011578
0.209541
0.140275
0.116125
0.113164
0.110339
0.10812
0.106663
0.10542
0.104314
0.103241
0.102217
0.101249
0.100318
0.0994405
0.098601
0.0977909
0.0970013
0.0962175
0.0954496
0.0947048
0.0939662
0.0932357
0.0925179
0.0918093
0.0911111
0.0904156
0.0897296
0.0890465
0.0883721
0.0876989
0.0870344
0.0863716
0.0857144
0.0850604
0.0844099
0.0837635
0.0831223
0.082483
0.0818474
0.0812148
0.0805845
0.079959
0.0793345
0.0787149
0.0780959
0.0774813
0.0768679
0.0762588
0.0756505
0.0750464
0.0744434
0.0738437
0.0732458
0.0726506
0.0720575
0.071467
0.0708784
0.0702917
0.0697079
0.0691257
0.068546
0.067968
0.0673921
0.0668183
0.066246
0.0656762
0.0651079
0.064542
0.0639775
0.0634151
0.0628542
0.0622952
0.0617379
0.0611825
0.0606286
0.0600766
0.0595261
0.0589773
0.0584301
0.0578842
0.0573403
0.0567976
0.0562568
0.0557172
0.0551793
0.0546427
0.0541076
0.053574
0.0530417
0.0525109
0.0519814
0.0514534
0.0509266
0.0504012
0.0498771
0.0493543
0.0488328
0.0483124
0.0477935
0.0472757
0.0467592
0.0462438
0.0457298
0.0452168
0.0447051
0.0441945
0.043685
0.0431767
0.0426694
0.0421634
0.0416583
0.0411545
0.0406516
0.0401499
0.039649
0.0391494
0.0386507
0.0381531
0.0376564
0.0371608
0.0366661
0.0361725
0.0356797
0.035188
0.0346972
0.0342074
0.0337184
0.0332305
0.0327434
0.0322572
0.0317719
0.0312875
0.030804
0.0303213
0.0298396
0.0293586
0.0288786
0.0283993
0.027921
0.0274433
0.0269666
0.0264906
0.0260155
0.0255411
0.0250675
0.0245947
0.0241227
0.0236515
0.023181
0.0227113
0.0222424
0.0217742
0.0213068
0.0208401
0.0203741
0.0199089
0.0194443
0.0189805
0.0185174
0.018055
0.0175933
0.0171323
0.016672
0.0162124
0.0157535
0.0152952
0.0148376
0.0143808
0.0139246
0.013469
0.0130141
0.0125599
0.0121064
0.0116535
0.0112014
0.0107498
0.0102992
0.0098489
0.00939986
0.00895084
0.00850352
0.00805565
0.00761018
0.00716347
0.00672023
0.00627444
0.0058338
0.00538873
0.00495143
0.00450665
0.00407359
0.00362879
0.003201
0.00275605
0.00233486
0.00188971
0.00147738
0.00102495
0.000637127
0.000116156
0.204027
0.141379
0.118043
0.113877
0.1108
0.108472
0.10695
0.105662
0.104521
0.103422
0.102379
0.101395
0.10045
0.0995632
0.0987128
0.0978925
0.097094
0.0963031
0.0955289
0.0947782
0.0940341
0.093299
0.0925772
0.0918649
0.0911632
0.0904645
0.0897757
0.0890901
0.0884132
0.0877379
0.0870714
0.0864067
0.0857478
0.0850922
0.0844402
0.0837926
0.0831501
0.0825096
0.0818729
0.0812392
0.080608
0.0799816
0.0793563
0.0787359
0.0781161
0.0775007
0.0768867
0.076277
0.0756681
0.0750634
0.0744599
0.0738596
0.0732612
0.0726657
0.0720721
0.0714811
0.0708921
0.0703051
0.0697209
0.0691383
0.0685583
0.06798
0.0674038
0.0668297
0.0662571
0.065687
0.0651185
0.0645523
0.0639875
0.063425
0.0628638
0.0623046
0.061747
0.0611915
0.0606374
0.0600852
0.0595345
0.0589855
0.0584381
0.0578921
0.057348
0.0568052
0.0562642
0.0557245
0.0551864
0.0546497
0.0541145
0.0535807
0.0530483
0.0525174
0.0519878
0.0514596
0.0509327
0.0504072
0.049883
0.0493601
0.0488385
0.048318
0.047799
0.0472811
0.0467646
0.0462491
0.045735
0.0452219
0.0447101
0.0441994
0.0436899
0.0431815
0.0426741
0.042168
0.0416629
0.041159
0.040656
0.0401542
0.0396533
0.0391537
0.0386548
0.0381572
0.0376604
0.0371648
0.03667
0.0361763
0.0356835
0.0351918
0.0347009
0.034211
0.033722
0.033234
0.0327469
0.0322606
0.0317753
0.0312908
0.0308073
0.0303246
0.0298428
0.0293618
0.0288817
0.0284024
0.027924
0.0274463
0.0269696
0.0264935
0.0260184
0.0255439
0.0250703
0.0245975
0.0241255
0.0236542
0.0231837
0.022714
0.0222451
0.0217768
0.0213094
0.0208426
0.0203766
0.0199113
0.0194468
0.0189829
0.0185198
0.0180574
0.0175956
0.0171346
0.0166742
0.0162146
0.0157557
0.0152974
0.0148398
0.0143829
0.0139267
0.0134711
0.0130162
0.012562
0.0121085
0.0116555
0.0112034
0.0107518
0.0103012
0.00985083
0.00940177
0.00895272
0.0085054
0.0080575
0.00761202
0.00716529
0.00672205
0.00627622
0.00583559
0.00539049
0.00495321
0.00450839
0.00407534
0.00363053
0.00320274
0.0027578
0.00233663
0.00189145
0.00147927
0.00102671
0.000639274
0.000116012
0.198043
0.140856
0.119824
0.114774
0.111238
0.108778
0.10719
0.105866
0.104706
0.103594
0.102541
0.101546
0.10059
0.0996939
0.0988334
0.0980036
0.0971969
0.0963991
0.0956188
0.0948622
0.0941123
0.0933727
0.0926465
0.0919305
0.0912247
0.0905224
0.0898306
0.089142
0.0884625
0.0877846
0.0871158
0.086449
0.0857882
0.0851306
0.0844769
0.0838278
0.0831838
0.0825418
0.0819039
0.0812689
0.0806366
0.0800091
0.0793828
0.0787614
0.0781407
0.0775245
0.0769096
0.0762991
0.0756895
0.0750842
0.07448
0.0738791
0.0732801
0.072684
0.0720898
0.0714984
0.0709089
0.0703214
0.0697367
0.0691538
0.0685733
0.0679946
0.067418
0.0668435
0.0662706
0.0657002
0.0651313
0.0645649
0.0639998
0.0634369
0.0628755
0.062316
0.0617582
0.0612024
0.0606481
0.0600956
0.0595447
0.0589955
0.0584479
0.0579017
0.0573574
0.0568144
0.0562732
0.0557333
0.0551951
0.0546582
0.0541228
0.0535889
0.0530563
0.0525253
0.0519955
0.0514672
0.0509402
0.0504146
0.0498902
0.0493672
0.0488454
0.0483248
0.0478057
0.0472877
0.046771
0.0462555
0.0457412
0.0452281
0.0447162
0.0442054
0.0436957
0.0431873
0.0426798
0.0421736
0.0416684
0.0411644
0.0406613
0.0401595
0.0396585
0.0391587
0.0386599
0.0381621
0.0376653
0.0371696
0.0366747
0.036181
0.0356881
0.0351963
0.0347054
0.0342154
0.0337264
0.0332383
0.0327511
0.0322648
0.0317794
0.0312949
0.0308113
0.0303285
0.0298467
0.0293656
0.0288855
0.0284062
0.0279277
0.02745
0.0269732
0.0264971
0.0260219
0.0255474
0.0250738
0.0246009
0.0241288
0.0236575
0.023187
0.0227172
0.0222482
0.02178
0.0213125
0.0208457
0.0203796
0.0199143
0.0194497
0.0189858
0.0185226
0.0180602
0.0175984
0.0171374
0.016677
0.0162174
0.0157584
0.0153
0.0148424
0.0143855
0.0139293
0.0134736
0.0130187
0.0125644
0.0121109
0.0116579
0.0112058
0.0107542
0.0103036
0.00985316
0.00940408
0.008955
0.00850767
0.00805973
0.00761425
0.00716748
0.00672424
0.00627837
0.00583774
0.0053926
0.00495533
0.00451048
0.00407743
0.00363261
0.00320481
0.00275985
0.00233872
0.00189349
0.00148147
0.0010288
0.000641509
0.000115313
0.191566
0.14022
0.120987
0.115817
0.111732
0.109072
0.107399
0.106027
0.104849
0.103731
0.102678
0.101679
0.100719
0.0998182
0.0989501
0.098114
0.0973015
0.0964977
0.0957126
0.0949509
0.0941958
0.093452
0.0927218
0.0920022
0.0912921
0.0905862
0.0898914
0.0891999
0.0885177
0.0878371
0.0871657
0.0864967
0.0858339
0.0851743
0.0845187
0.0838679
0.0832223
0.0825787
0.0819394
0.081303
0.0806694
0.0800407
0.0794133
0.0787908
0.0781691
0.0775518
0.0769361
0.0763247
0.0757143
0.0751082
0.0745032
0.0739016
0.0733019
0.0727052
0.0721104
0.0715184
0.0709283
0.0703403
0.0697551
0.0691716
0.0685907
0.0680115
0.0674345
0.0668596
0.0662862
0.0657155
0.0651463
0.0645795
0.064014
0.0634508
0.062889
0.0623293
0.0617711
0.061215
0.0606605
0.0601077
0.0595566
0.0590071
0.0584593
0.0579128
0.0573683
0.0568251
0.0562837
0.0557436
0.0552052
0.0546681
0.0541325
0.0535984
0.0530656
0.0525344
0.0520045
0.051476
0.0509488
0.0504231
0.0498986
0.0493754
0.0488535
0.0483328
0.0478135
0.0472953
0.0467786
0.0462629
0.0457485
0.0452352
0.0447232
0.0442123
0.0437025
0.043194
0.0426864
0.0421801
0.0416748
0.0411707
0.0406675
0.0401656
0.0396645
0.0391647
0.0386657
0.0381679
0.037671
0.0371751
0.0366802
0.0361864
0.0356935
0.0352016
0.0347106
0.0342206
0.0337314
0.0332433
0.032756
0.0322697
0.0317842
0.0312996
0.030816
0.0303331
0.0298512
0.0293701
0.0288899
0.0284105
0.027932
0.0274542
0.0269773
0.0265012
0.026026
0.0255514
0.0250777
0.0246048
0.0241327
0.0236613
0.0231908
0.0227209
0.0222519
0.0217836
0.0213161
0.0208492
0.0203832
0.0199178
0.0194531
0.0189892
0.018526
0.0180635
0.0176017
0.0171406
0.0166802
0.0162205
0.0157615
0.0153031
0.0148455
0.0143885
0.0139322
0.0134766
0.0130216
0.0125673
0.0121138
0.0116608
0.0112086
0.0107569
0.0103063
0.00985587
0.00940676
0.00895765
0.0085103
0.00806233
0.00761682
0.00717002
0.00672678
0.00628086
0.00584022
0.00539504
0.00495777
0.0045129
0.00407982
0.00363499
0.00320717
0.00276219
0.00234109
0.00189574
0.00148393
0.00103113
0.000643736
0.000114174
0.185576
0.140089
0.121708
0.11649
0.112276
0.109439
0.107622
0.106181
0.104969
0.103833
0.102778
0.101778
0.100821
0.099923
0.0990529
0.0982151
0.0974006
0.0965928
0.0958044
0.0950394
0.09428
0.0935325
0.0927991
0.0920766
0.0913624
0.0906534
0.0899559
0.0892617
0.0885771
0.0878936
0.0872198
0.0865488
0.085884
0.0852222
0.0845646
0.0839121
0.0832648
0.0826196
0.0819789
0.0813409
0.0807059
0.080076
0.0794473
0.0788238
0.0782008
0.0775825
0.0769658
0.0763535
0.0757421
0.0751352
0.0745293
0.0739269
0.0733266
0.0727292
0.0721337
0.071541
0.0709503
0.0703617
0.0697759
0.0691919
0.0686104
0.0680307
0.0674533
0.0668778
0.0663041
0.0657329
0.0651632
0.064596
0.0640302
0.0634666
0.0629045
0.0623443
0.0617859
0.0612295
0.0606746
0.0601215
0.0595701
0.0590203
0.0584722
0.0579255
0.0573807
0.0568373
0.0562956
0.0557553
0.0552166
0.0546793
0.0541436
0.0536092
0.0530762
0.0525448
0.0520147
0.0514861
0.0509587
0.0504328
0.0499081
0.0493847
0.0488627
0.0483418
0.0478224
0.0473041
0.0467871
0.0462713
0.0457568
0.0452434
0.0447313
0.0442202
0.0437103
0.0432016
0.0426939
0.0421875
0.0416821
0.0411779
0.0406746
0.0401725
0.0396714
0.0391714
0.0386723
0.0381745
0.0376774
0.0371815
0.0366865
0.0361926
0.0356996
0.0352076
0.0347165
0.0342264
0.0337372
0.033249
0.0327616
0.0322752
0.0317897
0.031305
0.0308213
0.0303384
0.0298564
0.0293752
0.028895
0.0284155
0.0279369
0.0274591
0.0269821
0.0265059
0.0260306
0.025556
0.0250823
0.0246093
0.0241372
0.0236657
0.0231951
0.0227252
0.0222561
0.0217878
0.0213202
0.0208533
0.0203872
0.0199218
0.0194571
0.0189931
0.0185298
0.0180673
0.0176055
0.0171443
0.0166838
0.0162241
0.0157651
0.0153067
0.0148489
0.014392
0.0139357
0.01348
0.013025
0.0125706
0.0121171
0.011664
0.0112118
0.0107601
0.0103095
0.00985897
0.00940982
0.00896068
0.00851331
0.0080653
0.00761976
0.00717292
0.00672967
0.00628371
0.00584305
0.00539783
0.00496054
0.00451564
0.00408253
0.00363769
0.00320983
0.00276481
0.00234374
0.00189822
0.00148666
0.00103368
0.000645955
0.000112668
0.180146
0.139816
0.122534
0.116938
0.11267
0.109885
0.107899
0.106352
0.105096
0.103932
0.102864
0.101853
0.100894
0.0999992
0.0991297
0.098295
0.0974838
0.0966759
0.0958875
0.0951219
0.0943601
0.0936102
0.0928746
0.0921502
0.0914329
0.0907212
0.0900216
0.0893251
0.0886384
0.0879523
0.0872763
0.0866034
0.0859368
0.085273
0.0846136
0.0839593
0.0833103
0.0826636
0.0820214
0.0813818
0.0807455
0.0801144
0.0794843
0.0788596
0.0782355
0.0776161
0.0769985
0.0763851
0.0757728
0.075165
0.0745582
0.073955
0.0733538
0.0727557
0.0721595
0.0715661
0.0709746
0.0703854
0.069799
0.0692144
0.0686324
0.0680521
0.0674742
0.0668982
0.0663239
0.0657523
0.0651822
0.0646145
0.0640482
0.0634843
0.0629217
0.0623612
0.0618024
0.0612456
0.0606904
0.060137
0.0595853
0.0590352
0.0584868
0.0579397
0.0573947
0.056851
0.056309
0.0557684
0.0552295
0.054692
0.054156
0.0536214
0.0530882
0.0525566
0.0520262
0.0514974
0.0509698
0.0504437
0.0499188
0.0493953
0.0488731
0.048352
0.0478324
0.0473139
0.0467968
0.0462808
0.0457662
0.0452526
0.0447403
0.0442291
0.0437191
0.0432103
0.0427024
0.0421959
0.0416903
0.041186
0.0406826
0.0401804
0.0396791
0.0391791
0.0386799
0.0381819
0.0376847
0.0371887
0.0366936
0.0361996
0.0357065
0.0352144
0.0347232
0.034233
0.0337437
0.0332554
0.032768
0.0322815
0.0317959
0.0313111
0.0308273
0.0303443
0.0298623
0.029381
0.0289007
0.0284211
0.0279425
0.0274646
0.0269876
0.0265113
0.0260359
0.0255613
0.0250874
0.0246144
0.0241422
0.0236707
0.0232
0.0227301
0.0222609
0.0217925
0.0213248
0.0208579
0.0203917
0.0199263
0.0194615
0.0189975
0.0185342
0.0180716
0.0176097
0.0171485
0.016688
0.0162282
0.0157691
0.0153107
0.0148529
0.0143959
0.0139395
0.0134838
0.0130288
0.0125744
0.0121208
0.0116677
0.0112154
0.0107637
0.010313
0.0098625
0.0094133
0.00896412
0.00851673
0.00806866
0.00762309
0.00717621
0.00673294
0.00628694
0.00584624
0.00540098
0.00496366
0.00451874
0.00408557
0.00364071
0.0032128
0.00276774
0.00234668
0.00190091
0.00148965
0.00103644
0.00064817
0.000110837
0.175054
0.139452
0.123242
0.117483
0.112967
0.110193
0.108217
0.106563
0.105238
0.104039
0.102956
0.101928
0.10096
0.100061
0.0991853
0.0983512
0.0975436
0.0967376
0.095953
0.0951907
0.0944295
0.0936796
0.092944
0.0922193
0.0915
0.0907865
0.0900854
0.0893874
0.0886993
0.088011
0.0873332
0.0866588
0.0859907
0.0853251
0.084664
0.0840082
0.0833577
0.0827095
0.0820661
0.0814249
0.0807873
0.080155
0.0795236
0.0788979
0.0782726
0.0776521
0.0770334
0.0764191
0.0758058
0.0751972
0.0745894
0.0739853
0.0733833
0.0727845
0.0721874
0.0715934
0.0710012
0.0704113
0.0698243
0.069239
0.0686564
0.0680755
0.067497
0.0669205
0.0663457
0.0657736
0.065203
0.0646349
0.0640681
0.0635038
0.0629408
0.0623798
0.0618206
0.0612635
0.0607078
0.0601541
0.059602
0.0590516
0.0585029
0.0579555
0.0574101
0.0568661
0.0563239
0.055783
0.0552439
0.054706
0.0541698
0.0536349
0.0531015
0.0525696
0.052039
0.05151
0.0509822
0.0504558
0.0499307
0.049407
0.0488846
0.0483633
0.0478435
0.0473249
0.0468076
0.0462914
0.0457766
0.0452629
0.0447504
0.0442391
0.0437289
0.0432199
0.0427119
0.0422053
0.0416995
0.0411951
0.0406915
0.0401892
0.0396878
0.0391876
0.0386883
0.0381902
0.0376929
0.0371968
0.0367016
0.0362074
0.0357142
0.035222
0.0347307
0.0342404
0.033751
0.0332626
0.0327751
0.0322885
0.0318028
0.0313179
0.0308341
0.030351
0.0298688
0.0293875
0.0289071
0.0284274
0.0279487
0.0274707
0.0269936
0.0265173
0.0260418
0.0255671
0.0250932
0.0246201
0.0241478
0.0236762
0.0232055
0.0227355
0.0222663
0.0217978
0.0213301
0.0208631
0.0203969
0.0199313
0.0194665
0.0190024
0.0185391
0.0180764
0.0176145
0.0171532
0.0166927
0.0162328
0.0157737
0.0153152
0.0148574
0.0144003
0.0139439
0.0134881
0.013033
0.0125786
0.012125
0.0116718
0.0112195
0.0107677
0.010317
0.00986646
0.0094172
0.00896798
0.00852056
0.00807245
0.00762683
0.00717991
0.00673661
0.00629056
0.0058498
0.00540451
0.00496713
0.0045222
0.00408895
0.00364408
0.0032161
0.00277097
0.00234991
0.00190384
0.0014929
0.00103939
0.000650385
0.000108715
0.170223
0.139029
0.123806
0.11798
0.11336
0.110425
0.108436
0.106784
0.105416
0.104163
0.103056
0.102008
0.101032
0.100125
0.0992387
0.0983999
0.0975905
0.0967817
0.095999
0.0952402
0.0944811
0.0937338
0.0930009
0.0922785
0.0915593
0.0908456
0.0901445
0.0894459
0.0887571
0.0880674
0.0873885
0.086713
0.0860439
0.0853768
0.0847143
0.0840573
0.0834056
0.0827562
0.0821117
0.081469
0.0808304
0.0801971
0.0795644
0.0789377
0.0783112
0.0776897
0.0770701
0.0764549
0.0758407
0.0752311
0.0746223
0.0740175
0.0734147
0.0728151
0.0722173
0.0716226
0.0710296
0.070439
0.0698513
0.0692655
0.0686823
0.0681008
0.0675217
0.0669446
0.0663692
0.0657967
0.0652255
0.064657
0.0640897
0.0635249
0.0629614
0.0624
0.0618404
0.0612829
0.0607269
0.0601728
0.0596203
0.0590695
0.0585204
0.0579727
0.057427
0.0568827
0.0563402
0.055799
0.0552595
0.0547214
0.0541849
0.0536498
0.053116
0.0525839
0.0520531
0.0515238
0.0509957
0.0504692
0.0499439
0.0494199
0.0488973
0.0483758
0.0478558
0.0473369
0.0468195
0.0463031
0.0457881
0.0452742
0.0447616
0.04425
0.0437397
0.0432305
0.0427224
0.0422156
0.0417097
0.0412051
0.0407014
0.0401989
0.0396974
0.0391971
0.0386976
0.0381993
0.037702
0.0372057
0.0367104
0.0362161
0.0357227
0.0352305
0.034739
0.0342487
0.0337591
0.0332706
0.032783
0.0322963
0.0318104
0.0313255
0.0308415
0.0303583
0.0298761
0.0293947
0.0289142
0.0284344
0.0279556
0.0274776
0.0270004
0.026524
0.0260484
0.0255736
0.0250996
0.0246264
0.0241541
0.0236824
0.0232116
0.0227415
0.0222723
0.0218037
0.0213359
0.0208688
0.0204026
0.0199369
0.0194721
0.0190079
0.0185445
0.0180818
0.0176198
0.0171585
0.0166979
0.016238
0.0157788
0.0153202
0.0148623
0.0144052
0.0139488
0.0134929
0.0130378
0.0125833
0.0121296
0.0116764
0.0112241
0.0107722
0.0103215
0.00987088
0.00942156
0.00897229
0.00852483
0.00807667
0.00763098
0.00718402
0.00674068
0.00629459
0.00585376
0.00540843
0.00497099
0.00452603
0.00409269
0.00364779
0.00321973
0.00277452
0.00235345
0.00190702
0.00149639
0.00104253
0.000652614
0.000106343
0.165651
0.138516
0.124247
0.118408
0.113731
0.110732
0.108607
0.106964
0.105563
0.104301
0.103172
0.102097
0.101106
0.100194
0.099296
0.0984522
0.0976387
0.0968235
0.0960388
0.0952794
0.0945189
0.0937721
0.0930417
0.0923228
0.0916049
0.0908932
0.090194
0.0894968
0.0888088
0.0881186
0.0874396
0.0867638
0.0860944
0.0854262
0.0847627
0.0841052
0.0834526
0.0828021
0.0821569
0.081513
0.0808735
0.0802394
0.0796057
0.0789781
0.0783506
0.0777282
0.0771078
0.0764918
0.0758767
0.0752663
0.0746566
0.074051
0.0734475
0.0728472
0.0722486
0.0716533
0.0710595
0.0704682
0.0698799
0.0692935
0.0687096
0.0681275
0.067548
0.0669702
0.0663943
0.0658213
0.0652496
0.0646806
0.0641128
0.0635476
0.0629836
0.0624217
0.0618617
0.0613038
0.0607473
0.0601929
0.05964
0.0590889
0.0585394
0.0579913
0.0574453
0.0569006
0.0563578
0.0558163
0.0552765
0.0547381
0.0542013
0.0536659
0.0531318
0.0525995
0.0520684
0.0515388
0.0510105
0.0504837
0.0499582
0.049434
0.0489111
0.0483894
0.0478692
0.0473501
0.0468325
0.0463159
0.0458007
0.0452866
0.0447738
0.044262
0.0437515
0.0432422
0.0427339
0.0422269
0.0417208
0.0412161
0.0407122
0.0402096
0.0397079
0.0392074
0.0387078
0.0382094
0.0377119
0.0372155
0.03672
0.0362256
0.0357321
0.0352397
0.0347482
0.0342577
0.033768
0.0332794
0.0327917
0.0323048
0.0318189
0.0313338
0.0308498
0.0303665
0.0298842
0.0294026
0.028922
0.0284422
0.0279633
0.0274851
0.0270078
0.0265313
0.0260557
0.0255808
0.0251067
0.0246335
0.024161
0.0236893
0.0232184
0.0227482
0.0222789
0.0218102
0.0213424
0.0208752
0.0204089
0.0199432
0.0194782
0.019014
0.0185505
0.0180877
0.0176257
0.0171643
0.0167036
0.0162437
0.0157844
0.0153258
0.0148678
0.0144106
0.0139542
0.0134983
0.013043
0.0125885
0.0121348
0.0116815
0.0112291
0.0107772
0.0103265
0.00987577
0.00942639
0.00897707
0.00852956
0.00808135
0.00763559
0.00718858
0.00674519
0.00629906
0.00585814
0.00541277
0.00497524
0.00453026
0.0040968
0.00365188
0.00322371
0.0027784
0.00235729
0.00191048
0.00150011
0.00104584
0.000654885
0.000103767
0.16134
0.137889
0.124571
0.118771
0.114071
0.111027
0.108832
0.107139
0.105666
0.104426
0.103264
0.102194
0.101192
0.10027
0.0993561
0.0985067
0.0976909
0.0968682
0.0960809
0.0953196
0.0945552
0.0938057
0.0930747
0.0923567
0.0916381
0.0909274
0.0902303
0.0895356
0.0888498
0.0881605
0.0874828
0.0868082
0.0861397
0.0854712
0.0848072
0.0841498
0.0834969
0.0828459
0.0822004
0.0815554
0.0809154
0.0802808
0.0796463
0.0790182
0.0783897
0.0777665
0.0771456
0.0765288
0.0759131
0.0753021
0.0746914
0.0740851
0.0734811
0.0728801
0.0722808
0.0716849
0.0710905
0.0704984
0.0699096
0.0693226
0.0687382
0.0681555
0.0675755
0.0669971
0.0664206
0.0658471
0.065275
0.0647054
0.0641372
0.0635715
0.0630071
0.0624447
0.0618843
0.061326
0.0607691
0.0602143
0.059661
0.0591095
0.0585596
0.0580112
0.0574648
0.0569198
0.0563767
0.0558348
0.0552948
0.054756
0.0542189
0.0536832
0.0531488
0.0526162
0.0520848
0.051555
0.0510265
0.0504994
0.0499736
0.0494492
0.0489261
0.0484041
0.0478837
0.0473644
0.0468465
0.0463297
0.0458144
0.0453
0.044787
0.0442751
0.0437644
0.0432548
0.0427463
0.0422392
0.0417329
0.041228
0.040724
0.0402212
0.0397193
0.0392187
0.0387189
0.0382204
0.0377227
0.0372262
0.0367306
0.036236
0.0357424
0.0352499
0.0347582
0.0342676
0.0337778
0.033289
0.0328011
0.0323142
0.0318281
0.031343
0.0308588
0.0303754
0.029893
0.0294113
0.0289306
0.0284507
0.0279717
0.0274934
0.027016
0.0265394
0.0260637
0.0255887
0.0251145
0.0246412
0.0241687
0.0236968
0.0232258
0.0227556
0.0222862
0.0218174
0.0213494
0.0208822
0.0204158
0.01995
0.019485
0.0190207
0.0185571
0.0180943
0.0176322
0.0171707
0.01671
0.0162499
0.0157906
0.0153319
0.0148739
0.0144166
0.0139601
0.0135041
0.0130489
0.0125943
0.0121405
0.0116871
0.0112346
0.0107827
0.0103319
0.00988118
0.00943171
0.00898233
0.00853477
0.00808651
0.00764066
0.0071936
0.00675014
0.00630398
0.00586296
0.00541755
0.00497991
0.00453491
0.0041013
0.00365635
0.00322805
0.00278263
0.00236146
0.00191424
0.00150405
0.00104929
0.000657218
0.000101049
0.15729
0.137143
0.124778
0.119068
0.114381
0.1113
0.109053
0.107308
0.105804
0.10454
0.103336
0.102285
0.101281
0.100329
0.0994261
0.0985669
0.0977457
0.0969145
0.0961241
0.0953628
0.0945938
0.0938405
0.0931086
0.0923902
0.0916682
0.0909561
0.090259
0.0895649
0.0888802
0.0881912
0.0875152
0.0868424
0.086176
0.0855083
0.0848449
0.0841887
0.0835364
0.0828856
0.0822404
0.0815947
0.0809547
0.0803199
0.0796851
0.0790567
0.0784275
0.0778037
0.0771824
0.0765652
0.0759489
0.0753375
0.0747261
0.0741192
0.0735147
0.0729132
0.0723133
0.071717
0.0711219
0.0705292
0.0699399
0.0693524
0.0687675
0.0681843
0.0676038
0.0670248
0.0664479
0.0658739
0.0653013
0.0647313
0.0641626
0.0635965
0.0630316
0.0624688
0.061908
0.0613493
0.060792
0.0602368
0.0596831
0.0591313
0.058581
0.0580322
0.0574854
0.0569401
0.0563967
0.0558545
0.0553141
0.054775
0.0542377
0.0537016
0.053167
0.0526341
0.0521024
0.0515723
0.0510435
0.0505162
0.0499901
0.0494655
0.0489421
0.0484199
0.0478992
0.0473797
0.0468616
0.0463446
0.045829
0.0453144
0.0448013
0.0442891
0.0437782
0.0432685
0.0427598
0.0422524
0.041746
0.0412409
0.0407367
0.0402338
0.0397317
0.039231
0.038731
0.0382323
0.0377345
0.0372377
0.036742
0.0362473
0.0357535
0.0352609
0.034769
0.0342783
0.0337883
0.0332995
0.0328115
0.0323244
0.0318382
0.0313529
0.0308686
0.0303851
0.0299025
0.0294208
0.02894
0.0284599
0.0279808
0.0275024
0.0270249
0.0265482
0.0260724
0.0255973
0.025123
0.0246496
0.024177
0.023705
0.0232339
0.0227636
0.0222941
0.0218252
0.0213572
0.0208899
0.0204234
0.0199575
0.0194924
0.0190281
0.0185644
0.0181015
0.0176393
0.0171778
0.0167169
0.0162568
0.0157974
0.0153387
0.0148806
0.0144232
0.0139666
0.0135106
0.0130552
0.0126006
0.0121467
0.0116933
0.0112407
0.0107888
0.0103379
0.00988711
0.00943755
0.00898811
0.00854049
0.00809218
0.00764622
0.00719911
0.00675558
0.00630937
0.00586823
0.00542278
0.00498501
0.00453998
0.00410621
0.00366123
0.00323276
0.00278723
0.00236594
0.00191832
0.00150821
0.00105289
0.000659624
9.82604e-05
0.153494
0.136288
0.124869
0.119296
0.114657
0.111553
0.109262
0.107474
0.105944
0.10465
0.103436
0.102369
0.101356
0.100378
0.0994973
0.0986297
0.0977863
0.0969674
0.0961726
0.0954082
0.0946341
0.0938762
0.0931436
0.0924259
0.0916997
0.0909854
0.0902875
0.0895929
0.0889073
0.0882165
0.0875407
0.0868686
0.0862034
0.085536
0.0848733
0.084219
0.083568
0.0829182
0.0822744
0.0816286
0.0809894
0.0803551
0.0797204
0.0790923
0.0784626
0.0778387
0.0772174
0.0765999
0.0759832
0.0753717
0.0747596
0.0741524
0.0735475
0.0729457
0.0723453
0.0717487
0.071153
0.0705598
0.0699702
0.0693823
0.068797
0.0682133
0.0676325
0.0670529
0.0664755
0.0659013
0.0653281
0.0647578
0.0641886
0.0636222
0.0630569
0.0624936
0.0619324
0.0613734
0.0608157
0.0602602
0.0597061
0.059154
0.0586033
0.058054
0.057507
0.0569614
0.0564176
0.0558751
0.0553345
0.054795
0.0542574
0.053721
0.053186
0.0526529
0.052121
0.0515906
0.0510615
0.050534
0.0500076
0.0494827
0.0489591
0.0484366
0.0479157
0.047396
0.0468777
0.0463604
0.0458446
0.0453298
0.0448165
0.0443041
0.043793
0.043283
0.0427741
0.0422666
0.04176
0.0412547
0.0407503
0.0402472
0.039745
0.0392441
0.0387439
0.0382451
0.0377471
0.0372502
0.0367543
0.0362595
0.0357655
0.0352727
0.0347807
0.0342898
0.0337997
0.0333107
0.0328226
0.0323354
0.0318491
0.0313636
0.0308792
0.0303956
0.0299129
0.029431
0.0289501
0.0284699
0.0279907
0.0275122
0.0270346
0.0265577
0.0260818
0.0256066
0.0251322
0.0246587
0.024186
0.0237139
0.0232427
0.0227723
0.0223027
0.0218338
0.0213656
0.0208982
0.0204317
0.0199657
0.0195005
0.0190361
0.0185723
0.0181093
0.017647
0.0171854
0.0167245
0.0162643
0.0158048
0.015346
0.0148878
0.0144304
0.0139737
0.0135176
0.0130622
0.0126074
0.0121535
0.0117001
0.0112474
0.0107953
0.0103444
0.00989358
0.00944392
0.00899442
0.00854674
0.00809837
0.0076523
0.00720513
0.0067615
0.00631525
0.00587398
0.00542848
0.00499057
0.00454552
0.00411155
0.00366652
0.00323786
0.0027922
0.00237077
0.00192273
0.0015126
0.00105665
0.000662108
9.54776e-05
0.149946
0.135337
0.124848
0.119454
0.114896
0.111783
0.109458
0.107634
0.106078
0.104761
0.103537
0.102452
0.10143
0.10045
0.0995572
0.098684
0.0978229
0.0970219
0.0962237
0.0954412
0.0946739
0.0939193
0.093182
0.0924632
0.0917326
0.0910154
0.0903167
0.0896219
0.0889357
0.088242
0.0875655
0.0868931
0.0862278
0.0855591
0.0848958
0.0842424
0.083592
0.0829429
0.0823004
0.0816548
0.081017
0.0803838
0.07975
0.0791228
0.0784932
0.0778696
0.0772488
0.0766315
0.0760149
0.0754036
0.074791
0.0741837
0.0735788
0.0729768
0.0723761
0.0717795
0.0711832
0.0705897
0.0699998
0.0694116
0.068826
0.0682419
0.067661
0.0670809
0.0665031
0.0659286
0.0653551
0.0647844
0.0642149
0.0636483
0.0630825
0.0625187
0.0619573
0.061398
0.0608399
0.0602841
0.0597296
0.0591773
0.0586262
0.0580766
0.0575293
0.0569834
0.0564393
0.0558965
0.0553556
0.0548158
0.054278
0.0537412
0.0532059
0.0526726
0.0521404
0.0516098
0.0510804
0.0505526
0.050026
0.0495009
0.048977
0.0484542
0.0479331
0.0474132
0.0468946
0.0463771
0.0458611
0.0453461
0.0448325
0.0443199
0.0438087
0.0432985
0.0427894
0.0422817
0.0417749
0.0412694
0.0407648
0.0402616
0.0397591
0.039258
0.0387577
0.0382587
0.0377605
0.0372635
0.0367674
0.0362724
0.0357783
0.0352854
0.0347932
0.0343022
0.033812
0.0333228
0.0328345
0.0323472
0.0318607
0.0313751
0.0308906
0.0304068
0.029924
0.029442
0.028961
0.0284806
0.0280013
0.0275227
0.027045
0.026568
0.026092
0.0256167
0.0251422
0.0246685
0.0241957
0.0237236
0.0232522
0.0227817
0.0223121
0.021843
0.0213747
0.0209073