/*--------------------------------*- C++ -*----------------------------------*\
  =========                 |
  \\      /  F ield         | OpenFOAM: The Open Source CFD Toolbox
   \\    /   O peration     | Website:  https://openfoam.org
    \\  /    A nd           | Version:  12
     \\/     M anipulation  |
\*---------------------------------------------------------------------------*/
FoamFile
{
    format      ascii;
    class       surfaceScalarField;
    location    "900";
    object      phi;
}
// * * * * * * * * * * * * * * * * * * * * * * * * * * * * * * * * * * * * * //

dimensions      [0 3 -1 0 0 0 0];

internalField   nonuniform List<scalar> 
39700
(
0.000289049
0.000218413
0.000158807
0.000130241
0.000114183
4.46235e-05
9.67877e-05
1.73953e-05
8.76322e-05
9.15471e-06
8.18554e-05
5.77624e-06
7.80677e-05
3.78715e-06
7.53659e-05
2.70137e-06
7.3314e-05
2.05133e-06
7.16126e-05
1.70102e-06
7.01859e-05
1.4264e-06
6.89792e-05
1.20676e-06
6.79004e-05
1.07858e-06
6.6989e-05
9.11424e-07
6.61929e-05
7.96212e-07
6.54755e-05
7.17535e-07
6.48187e-05
6.56924e-07
6.4211e-05
6.07793e-07
6.36454e-05
5.65771e-07
6.31256e-05
5.19878e-07
6.26353e-05
4.90481e-07
6.2173e-05
4.62345e-07
6.17358e-05
4.37358e-07
6.13245e-05
4.11366e-07
6.09371e-05
3.87515e-07
6.0564e-05
3.73175e-07
6.02097e-05
3.54362e-07
5.9868e-05
3.41831e-07
5.95423e-05
3.25761e-07
5.92284e-05
3.13878e-07
5.89284e-05
3.00093e-07
5.86372e-05
2.91222e-07
5.83575e-05
2.79759e-07
5.80876e-05
2.69989e-07
5.78258e-05
2.61825e-07
5.75728e-05
2.53126e-07
5.73296e-05
2.43247e-07
5.70927e-05
2.3698e-07
5.68633e-05
2.29421e-07
5.6641e-05
2.22352e-07
5.64239e-05
2.17117e-07
5.62142e-05
2.09743e-07
5.60092e-05
2.0508e-07
5.58112e-05
1.97972e-07
5.56177e-05
1.93593e-07
5.54295e-05
1.88226e-07
5.52453e-05
1.84274e-07
5.50667e-05
1.78576e-07
5.48915e-05
1.75278e-07
5.47216e-05
1.69904e-07
5.45553e-05
1.6631e-07
5.43932e-05
1.6217e-07
5.42343e-05
1.58888e-07
5.40796e-05
1.54747e-07
5.39282e-05
1.51394e-07
5.37805e-05
1.47762e-07
5.3636e-05
1.44524e-07
5.34943e-05
1.41706e-07
5.3356e-05
1.38287e-07
5.32204e-05
1.35583e-07
5.30879e-05
1.32509e-07
5.2958e-05
1.29944e-07
5.28308e-05
1.27201e-07
5.27063e-05
1.24494e-07
5.25839e-05
1.2242e-07
5.24643e-05
1.19636e-07
5.23467e-05
1.17559e-07
5.22318e-05
1.14895e-07
5.21188e-05
1.12986e-07
5.20082e-05
1.10595e-07
5.18995e-05
1.08652e-07
5.17929e-05
1.06575e-07
5.16882e-05
1.04784e-07
5.15855e-05
1.02699e-07
5.14845e-05
1.00927e-07
5.13855e-05
9.9028e-08
5.12882e-05
9.72851e-08
5.11926e-05
9.55371e-08
5.10989e-05
9.37662e-08
5.10065e-05
9.23354e-08
5.09159e-05
9.05982e-08
5.08267e-05
8.91835e-08
5.07392e-05
8.75279e-08
5.0653e-05
8.61852e-08
5.05683e-05
8.46255e-08
5.0485e-05
8.32812e-08
5.04031e-05
8.18914e-08
5.03226e-05
8.05097e-08
5.02433e-05
7.93148e-08
5.01653e-05
7.79533e-08
5.00885e-05
7.67937e-08
5.0013e-05
7.54952e-08
4.99387e-05
7.43713e-08
4.98655e-05
7.31616e-08
4.97935e-05
7.20271e-08
4.97225e-05
7.09292e-08
4.96527e-05
6.97783e-08
4.95839e-05
6.88354e-08
4.95162e-05
6.76996e-08
4.94494e-05
6.67754e-08
4.93837e-05
6.56774e-08
4.93189e-05
6.4798e-08
4.92552e-05
6.37397e-08
4.91923e-05
6.28865e-08
4.91304e-05
6.18977e-08
4.90693e-05
6.10341e-08
4.90092e-05
6.01611e-08
4.89499e-05
5.92499e-08
4.88914e-05
5.85007e-08
4.88338e-05
5.75695e-08
4.8777e-05
5.68646e-08
4.8721e-05
5.59593e-08
4.86657e-05
5.52852e-08
4.86113e-05
5.43933e-08
4.85576e-05
5.37635e-08
4.85047e-05
5.29108e-08
4.84524e-05
5.22762e-08
4.84009e-05
5.14832e-08
4.835e-05
5.08459e-08
4.82999e-05
5.01194e-08
4.82504e-05
4.94991e-08
4.82016e-05
4.87878e-08
4.81535e-05
4.81923e-08
4.8106e-05
4.74858e-08
4.80591e-05
4.69169e-08
4.80128e-05
4.62513e-08
4.79671e-05
4.56914e-08
4.79221e-05
4.50553e-08
4.78776e-05
4.44863e-08
4.78337e-05
4.39204e-08
4.77903e-05
4.33288e-08
4.77475e-05
4.28207e-08
4.77053e-05
4.22341e-08
4.76635e-05
4.17423e-08
4.76224e-05
4.11519e-08
4.75817e-05
4.06977e-08
4.75415e-05
4.01311e-08
4.75019e-05
3.96796e-08
4.74627e-05
3.91178e-08
4.7424e-05
3.87047e-08
4.73859e-05
3.81734e-08
4.73481e-05
3.77339e-08
4.73109e-05
3.72385e-08
4.72741e-05
3.68298e-08
4.72377e-05
3.63525e-08
4.72018e-05
3.59159e-08
4.71663e-05
3.54667e-08
4.71313e-05
3.50948e-08
4.70966e-05
3.46273e-08
4.70624e-05
3.42232e-08
4.70286e-05
3.37958e-08
4.69952e-05
3.34409e-08
4.69622e-05
3.29977e-08
4.69296e-05
3.26176e-08
4.68974e-05
3.22374e-08
4.68655e-05
3.18665e-08
4.6834e-05
3.14779e-08
4.68029e-05
3.11065e-08
4.67722e-05
3.07827e-08
4.67418e-05
3.03878e-08
4.67117e-05
3.00407e-08
4.6682e-05
2.97025e-08
4.66526e-05
2.94016e-08
4.66236e-05
2.90127e-08
4.65949e-05
2.86889e-08
4.65665e-05
2.8381e-08
4.65384e-05
2.80902e-08
4.65107e-05
2.77206e-08
4.64833e-05
2.74035e-08
4.64561e-05
2.71358e-08
4.64293e-05
2.68312e-08
4.64028e-05
2.65257e-08
4.63765e-05
2.62023e-08
4.63505e-05
2.60176e-08
4.63249e-05
2.56693e-08
4.62994e-05
2.54364e-08
4.62743e-05
2.50399e-08
4.62493e-05
2.5023e-08
4.62248e-05
2.45539e-08
4.62002e-05
2.46054e-08
4.61762e-05
2.39694e-08
4.61518e-05
2.43771e-08
4.61283e-05
2.34755e-08
4.61041e-05
2.41931e-08
4.60813e-05
2.2823e-08
4.6057e-05
2.42811e-08
4.60348e-05
2.22191e-08
4.60101e-05
2.4669e-08
4.59887e-05
2.13675e-08
4.59632e-05
2.55171e-08
4.5943e-05
2.02232e-08
4.59158e-05
2.72532e-08
4.58972e-05
1.85936e-08
4.58676e-05
2.96152e-08
4.58505e-05
1.71211e-08
4.58184e-05
3.20769e-08
4.58029e-05
1.55715e-08
4.57668e-05
3.60615e-08
4.57623e-05
4.4652e-09
1.14336e-07
0.000488266
0.000262024
0.000397814
0.000220692
0.000326643
0.000115795
0.000282376
6.16612e-05
0.000254841
3.66891e-05
0.000236499
2.41175e-05
0.000223531
1.67549e-05
0.000213786
1.24459e-05
0.000206136
9.70035e-06
0.00019986
7.97729e-06
0.000194622
6.66315e-06
0.000190197
5.63191e-06
0.000186356
4.92022e-06
0.000183054
4.21339e-06
0.000180166
3.68381e-06
0.00017759
3.29337e-06
0.000175268
2.9794e-06
0.00017316
2.7155e-06
0.000171232
2.4949e-06
0.000169468
2.28341e-06
0.000167834
2.12431e-06
0.000166319
1.97813e-06
0.000164904
1.85237e-06
0.000163586
1.72916e-06
0.000162354
1.61944e-06
0.000161189
1.53868e-06
0.00016009
1.45332e-06
0.000159047
1.38517e-06
0.000158059
1.31322e-06
0.00015712
1.2533e-06
0.000156226
1.19416e-06
0.00015537
1.14732e-06
0.000154553
1.0968e-06
0.000153771
1.05201e-06
0.00015302
1.01319e-06
0.000152298
9.74564e-07
0.000151607
9.34609e-07
0.00015094
9.0422e-07
0.000150297
8.71777e-07
0.000149678
8.41566e-07
0.000149079
8.16757e-07
0.0001485
7.88034e-07
0.00014794
7.65685e-07
0.000147399
7.38939e-07
0.000146874
7.18415e-07
0.000146365
6.97246e-07
0.00014587
6.79053e-07
0.000145391
6.57894e-07
0.000144924
6.42149e-07
0.000144472
6.22507e-07
0.000144031
6.06836e-07
0.000143603
5.9085e-07
0.000143184
5.76919e-07
0.000142778
5.61265e-07
0.000142382
5.47705e-07
0.000141996
5.33839e-07
0.000141619
5.21039e-07
0.000141251
5.09522e-07
0.000140893
4.96914e-07
0.000140542
4.86042e-07
0.0001402
4.74554e-07
0.000139866
4.6442e-07
0.000139539
4.54012e-07
0.00013922
4.43919e-07
0.000138907
4.35356e-07
0.000138601
4.25464e-07
0.000138301
4.17132e-07
0.000138008
4.07727e-07
0.000137721
4.00013e-07
0.00013744
3.91472e-07
0.000137165
3.83921e-07
0.000136895
3.76305e-07
0.000136631
3.69417e-07
0.000136372
3.61951e-07
0.000136117
3.55236e-07
0.000135868
3.48357e-07
0.000135623
3.41888e-07
0.000135383
3.35474e-07
0.000135148
3.29109e-07
0.000134917
3.2356e-07
0.00013469
3.17484e-07
0.000134467
3.12117e-07
0.000134248
3.06303e-07
0.000134033
3.01225e-07
0.000133822
2.95736e-07
0.000133614
2.90765e-07
0.000133411
2.85764e-07
0.00013321
2.80824e-07
0.000133013
2.76367e-07
0.00013282
2.71606e-07
0.000132629
2.67311e-07
0.000132442
2.62763e-07
0.000132257
2.58642e-07
0.000132076
2.54366e-07
0.000131898
2.50299e-07
0.000131723
2.46344e-07
0.00013155
2.42329e-07
0.00013138
2.38784e-07
0.000131213
2.34903e-07
0.000131048
2.31478e-07
0.000130886
2.27726e-07
0.000130726
2.24457e-07
0.000130569
2.20838e-07
0.000130414
2.177e-07
0.000130262
2.14288e-07
0.000130112
2.11191e-07
0.000129964
2.08081e-07
0.000129818
2.04935e-07
0.000129675
2.02155e-07
0.000129533
1.99038e-07
0.000129394
1.96382e-07
0.000129256
1.93361e-07
0.000129121
1.90822e-07
0.000128987
1.87876e-07
0.000128855
1.85479e-07
0.000128726
1.8265e-07
0.000128598
1.8028e-07
0.000128472
1.7763e-07
0.000128347
1.75295e-07
0.000128224
1.72823e-07
0.000128103
1.70578e-07
0.000127984
1.68165e-07
0.000127866
1.66005e-07
0.00012775
1.6363e-07
0.000127635
1.61564e-07
0.000127522
1.59306e-07
0.000127411
1.57294e-07
0.000127301
1.55131e-07
0.000127192
1.53131e-07
0.000127085
1.51144e-07
0.000126979
1.49125e-07
0.000126874
1.47301e-07
0.000126771
1.45325e-07
0.00012667
1.43546e-07
0.000126569
1.41586e-07
0.00012647
1.39927e-07
0.000126372
1.38038e-07
0.000126275
1.36399e-07
0.00012618
1.34544e-07
0.000126086
1.33016e-07
0.000125993
1.31252e-07
0.000125901
1.29684e-07
0.00012581
1.28017e-07
0.00012572
1.26527e-07
0.000125632
1.2492e-07
0.000125544
1.23414e-07
0.000125458
1.2189e-07
0.000125372
1.20509e-07
0.000125288
1.18949e-07
0.000125205
1.17554e-07
0.000125122
1.16115e-07
0.000125041
1.14799e-07
0.000124961
1.13313e-07
0.000124881
1.12012e-07
0.000124803
1.10714e-07
0.000124725
1.09396e-07
0.000124649
1.08057e-07
0.000124573
1.0681e-07
0.000124498
1.05663e-07
0.000124424
1.04328e-07
0.000124351
1.03113e-07
0.000124279
1.01969e-07
0.000124207
1.00903e-07
0.000124137
9.96004e-08
0.000124067
9.84705e-08
0.000123998
9.73997e-08
0.00012393
9.63914e-08
0.000123862
9.51583e-08
0.000123795
9.40834e-08
0.000123729
9.30999e-08
0.000123664
9.2105e-08
0.0001236
9.10289e-08
0.000123536
9.00047e-08
0.000123473
8.91848e-08
0.00012341
8.81789e-08
0.000123348
8.72337e-08
0.000123287
8.61793e-08
0.000123227
8.56241e-08
0.000123167
8.4538e-08
0.000123107
8.40611e-08
0.000123048
8.2783e-08
0.00012299
8.29208e-08
0.000122932
8.13123e-08
0.000122874
8.18935e-08
0.000122817
7.96217e-08
0.00012276
8.14508e-08
0.000122704
7.82194e-08
0.000122647
8.16936e-08
0.000122592
7.64739e-08
0.000122535
8.30026e-08
0.000122481
7.42255e-08
0.000122421
8.66438e-08
0.000122369
7.09142e-08
0.000122307
9.19144e-08
0.000122255
6.85771e-08
0.00012219
9.72373e-08
0.000122137
6.8878e-08
0.000122068
1.04761e-07
0.00012202
5.27157e-08
2.66988e-07
0.000561758
0.000257734
0.000533663
0.000248787
0.000488961
0.000160496
0.000442262
0.00010836
0.000405038
7.3913e-05
0.00037623
5.29245e-05
0.00035383
3.91548e-05
0.000336081
3.01944e-05
0.000321765
2.40162e-05
0.00030997
1.97718e-05
0.00030011
1.65238e-05
0.00029176
1.39812e-05
0.000284581
1.20994e-05
0.000278358
1.04366e-05
0.000272904
9.13757e-06
0.000268059
8.13809e-06
0.000263726
7.31315e-06
0.000259824
6.61723e-06
0.000256281
6.03805e-06
0.000253056
5.50846e-06
0.000250095
5.08488e-06
0.00024737
4.7037e-06
0.000244845
4.37701e-06
0.000242507
4.06805e-06
0.000240331
3.79517e-06
0.000238291
3.57888e-06
0.000236378
3.36561e-06
0.000234577
3.1866e-06
0.000232882
3.00858e-06
0.000231279
2.85643e-06
0.00022976
2.71308e-06
0.000228316
2.5907e-06
0.000226945
2.46771e-06
0.00022564
2.35749e-06
0.000224393
2.25988e-06
0.000223202
2.1664e-06
0.000222063
2.07352e-06
0.00022097
1.99703e-06
0.000219922
1.91954e-06
0.000218916
1.84752e-06
0.000217947
1.78611e-06
0.000217015
1.72023e-06
0.000216115
1.66513e-06
0.000215249
1.60512e-06
0.000214412
1.55525e-06
0.000213603
1.50623e-06
0.00021282
1.46226e-06
0.000212063
1.41505e-06
0.000211329
1.3766e-06
0.000210618
1.33332e-06
0.000209928
1.29647e-06
0.000209259
1.26029e-06
0.000208608
1.22764e-06
0.000207976
1.19292e-06
0.000207362
1.16197e-06
0.000206765
1.13108e-06
0.000206184
1.1021e-06
0.000205618
1.07571e-06
0.000205067
1.04811e-06
0.000204529
1.02347e-06
0.000204005
9.98226e-07
0.000203495
9.75398e-07
0.000202996
9.52467e-07
0.00020251
9.30296e-07
0.000202034
9.1074e-07
0.00020157
8.89556e-07
0.000201116
8.70859e-07
0.000200673
8.50828e-07
0.00020024
8.33473e-07
0.000199816
8.15198e-07
0.000199402
7.98497e-07
0.000198996
7.82006e-07
0.000198598
7.66823e-07
0.00019821
7.50899e-07
0.000197829
7.36245e-07
0.000197455
7.21513e-07
0.00019709
7.07526e-07
0.000196731
6.93769e-07
0.00019638
6.80197e-07
0.000196036
6.67998e-07
0.000195698
6.55219e-07
0.000195367
6.43555e-07
0.000195042
6.31335e-07
0.000194723
6.20318e-07
0.00019441
6.08792e-07
0.000194102
5.98122e-07
0.0001938
5.87528e-07
0.000193504
5.77086e-07
0.000193213
5.67492e-07
0.000192927
5.57539e-07
0.000192646
5.48343e-07
0.00019237
5.38844e-07
0.000192098
5.30061e-07
0.000191832
5.21106e-07
0.00019157
5.12535e-07
0.000191312
5.04196e-07
0.000191058
4.9583e-07
0.000190809
4.88219e-07
0.000190563
4.80223e-07
0.000190322
4.72927e-07
0.000190084
4.65203e-07
0.000189851
4.58237e-07
0.000189621
4.50803e-07
0.000189394
4.44142e-07
0.000189171
4.3711e-07
0.000188952
4.30604e-07
0.000188736
4.24114e-07
0.000188523
4.17621e-07
0.000188314
4.11715e-07
0.000188107
4.05377e-07
0.000187904
3.99712e-07
0.000187704
3.93585e-07
0.000187506
3.88176e-07
0.000187312
3.82234e-07
0.00018712
3.77102e-07
0.000186932
3.71396e-07
0.000186746
3.66371e-07
0.000186562
3.61001e-07
0.000186382
3.56086e-07
0.000186203
3.51044e-07
0.000186028
3.46346e-07
0.000185854
3.41429e-07
0.000185683
3.36909e-07
0.000185515
3.32109e-07
0.000185349
3.27781e-07
0.000185185
3.23191e-07
0.000185023
3.18996e-07
0.000184864
3.14601e-07
0.000184706
3.10469e-07
0.000184551
3.06376e-07
0.000184398
3.02269e-07
0.000184247
2.98453e-07
0.000184098
2.94456e-07
0.00018395
2.9076e-07
0.000183805
2.86833e-07
0.000183662
2.83325e-07
0.00018352
2.79531e-07
0.000183381
2.76121e-07
0.000183243
2.72416e-07
0.000183106
2.69172e-07
0.000182972
2.65631e-07
0.000182839
2.6239e-07
0.000182708
2.59025e-07
0.000182579
2.55908e-07
0.000182451
2.52684e-07
0.000182325
2.49599e-07
0.0001822
2.46489e-07
0.000182077
2.43611e-07
0.000181956
2.40517e-07
0.000181836
2.37645e-07
0.000181717
2.34706e-07
0.0001816
2.32001e-07
0.000181484
2.29072e-07
0.00018137
2.26378e-07
0.000181257
2.2369e-07
0.000181145
2.21051e-07
0.000181035
2.18391e-07
0.000180926
2.1581e-07
0.000180818
2.13397e-07
0.000180712
2.10809e-07
0.000180606
2.08376e-07
0.000180502
2.05978e-07
0.000180399
2.03723e-07
0.000180298
2.01227e-07
0.000180197
1.98965e-07
0.000180098
1.96715e-07
0.00018
1.94609e-07
0.000179903
1.92239e-07
0.000179807
1.90099e-07
0.000179712
1.88002e-07
0.000179618
1.85985e-07
0.000179525
1.83831e-07
0.000179433
1.81843e-07
0.000179343
1.79995e-07
0.000179253
1.78109e-07
0.000179164
1.76098e-07
0.000179076
1.74203e-07
0.000178989
1.72634e-07
0.000178902
1.70845e-07
0.000178817
1.69377e-07
0.000178732
1.67502e-07
0.000178649
1.66717e-07
0.000178565
1.64634e-07
0.000178483
1.6432e-07
0.000178401
1.61655e-07
0.000178319
1.62752e-07
0.000178238
1.59211e-07
0.000178158
1.62317e-07
0.000178078
1.56578e-07
0.000177997
1.63582e-07
0.000177918
1.53293e-07
0.000177836
1.68483e-07
0.000177758
1.48821e-07
0.000177674
1.7667e-07
0.000177596
1.45983e-07
0.000177509
1.84876e-07
0.000177427
1.50385e-07
0.000177337
1.94733e-07
0.000177254
1.36033e-07
4.19766e-07
0.000603275
0.000238748
0.000602014
0.000250048
0.000586362
0.000176148
0.000559305
0.000135417
0.000528243
0.000104975
0.000498892
8.22744e-05
0.000472622
6.54243e-05
0.000449709
5.31068e-05
0.000430058
4.36675e-05
0.00041327
3.65594e-05
0.000398899
3.08943e-05
0.000386515
2.63654e-05
0.000375766
2.28483e-05
0.000366354
1.98486e-05
0.000358053
1.74383e-05
0.000350675
1.55162e-05
0.000344086
1.39024e-05
0.000338162
1.25417e-05
0.000332797
1.14024e-05
0.000327923
1.03825e-05
0.000323468
9.54053e-06
0.00031938
8.79172e-06
0.000315608
8.14856e-06
0.000312124
7.55302e-06
0.00030889
7.02919e-06
0.000305871
6.59725e-06
0.000303053
6.18433e-06
0.000300408
5.83103e-06
0.000297928
5.48904e-06
0.000295591
5.19368e-06
0.000293383
4.92066e-06
0.000291294
4.67977e-06
0.000289316
4.44585e-06
0.000287438
4.23526e-06
0.000285652
4.04627e-06
0.000283949
3.86956e-06
0.000282325
3.69766e-06
0.000280772
3.54973e-06
0.000279287
3.40431e-06
0.000277865
3.26931e-06
0.0002765
3.15188e-06
0.000275189
3.03065e-06
0.000273929
2.9259e-06
0.000272716
2.81724e-06
0.000271548
2.72335e-06
0.000270422
2.63263e-06
0.000269334
2.54997e-06
0.000268285
2.46473e-06
0.000267269
2.39216e-06
0.000266288
2.31469e-06
0.000265338
2.24669e-06
0.000264417
2.18094e-06
0.000263524
2.12058e-06
0.000262658
2.05844e-06
0.000261818
2.00222e-06
0.000261003
1.94681e-06
0.00026021
1.89439e-06
0.00025944
1.84633e-06
0.00025869
1.79736e-06
0.000257961
1.75285e-06
0.000257251
1.70802e-06
0.00025656
1.66691e-06
0.000255886
1.62619e-06
0.000255229
1.58684e-06
0.000254589
1.55141e-06
0.000253964
1.51437e-06
0.000253354
1.4809e-06
0.000252759
1.44605e-06
0.000252177
1.41497e-06
0.000251609
1.38309e-06
0.000251054
1.35348e-06
0.000250512
1.32453e-06
0.000249981
1.29763e-06
0.000249462
1.26996e-06
0.000248954
1.2442e-06
0.000248457
1.21856e-06
0.00024797
1.1941e-06
0.000247494
1.17019e-06
0.000247027
1.14664e-06
0.00024657
1.12514e-06
0.000246122
1.10314e-06
0.000245683
1.08274e-06
0.000245253
1.06174e-06
0.000244831
1.04249e-06
0.000244417
1.02272e-06
0.000244011
1.0042e-06
0.000243612
9.85946e-07
0.000243221
9.67982e-07
0.000242837
9.51306e-07
0.000242461
9.34291e-07
0.000242091
9.18372e-07
0.000241727
9.02158e-07
0.00024137
8.86996e-07
0.00024102
8.71699e-07
0.000240675
8.57006e-07
0.000240337
8.42719e-07
0.000240004
8.28468e-07
0.000239677
8.15297e-07
0.000239356
8.01766e-07
0.000239039
7.89205e-07
0.000238728
7.76157e-07
0.000238422
7.64169e-07
0.000238121
7.51636e-07
0.000237825
7.40197e-07
0.000237534
7.2833e-07
0.000237248
7.17223e-07
0.000236965
7.06196e-07
0.000236688
6.9523e-07
0.000236415
6.85094e-07
0.000236145
6.74474e-07
0.00023588
6.64751e-07
0.000235619
6.54509e-07
0.000235362
6.45227e-07
0.000235109
6.35327e-07
0.00023486
6.26506e-07
0.000234614
6.17008e-07
0.000234372
6.08412e-07
0.000234134
5.99449e-07
0.000233899
5.91085e-07
0.000233667
5.82636e-07
0.000233439
5.74658e-07
0.000233214
5.66436e-07
0.000232992
5.58771e-07
0.000232773
5.50776e-07
0.000232558
5.43432e-07
0.000232345
5.35778e-07
0.000232135
5.28678e-07
0.000231929
5.21346e-07
0.000231725
5.1439e-07
0.000231524
5.07518e-07
0.000231325
5.00656e-07
0.000231129
4.94205e-07
0.000230936
4.87561e-07
0.000230746
4.81317e-07
0.000230558
4.74812e-07
0.000230372
4.68869e-07
0.000230189
4.62594e-07
0.000230009
4.56826e-07
0.00022983
4.50707e-07
0.000229654
4.45207e-07
0.00022948
4.39362e-07
0.000229309
4.33904e-07
0.00022914
4.28323e-07
0.000228973
4.23075e-07
0.000228808
4.17726e-07
0.000228645
4.12567e-07
0.000228484
4.07405e-07
0.000228325
4.02553e-07
0.000228168
3.97441e-07
0.000228013
3.9264e-07
0.00022786
3.87777e-07
0.000227709
3.83221e-07
0.000227559
3.78384e-07
0.000227412
3.7389e-07
0.000227266
3.69432e-07
0.000227122
3.65026e-07
0.00022698
3.606e-07
0.000226839
3.56324e-07
0.0002267
3.52295e-07
0.000226563
3.4802e-07
0.000226428
3.43946e-07
0.000226294
3.3998e-07
0.000226161
3.36228e-07
0.00022603
3.32117e-07
0.000225901
3.28329e-07
0.000225773
3.24602e-07
0.000225646
3.21108e-07
0.000225521
3.1721e-07
0.000225398
3.1366e-07
0.000225276
3.10162e-07
0.000225155
3.0686e-07
0.000225035
3.03266e-07
0.000224917
3.00019e-07
0.0002248
2.96836e-07
0.000224685
2.93835e-07
0.00022457
2.90407e-07
0.000224457
2.87474e-07
0.000224345
2.84567e-07
0.000224234
2.81925e-07
0.000224124
2.79031e-07
0.000224015
2.76473e-07
0.000223908
2.74335e-07
0.000223801
2.71822e-07
0.000223695
2.70046e-07
0.000223589
2.67158e-07
0.000223485
2.66882e-07
0.000223381
2.63406e-07
0.000223278
2.65281e-07
0.000223175
2.59612e-07
0.000223072
2.66095e-07
0.00022297
2.55284e-07
0.000222867
2.71691e-07
0.000222766
2.49825e-07
0.000222661
2.82374e-07
0.00022256
2.46762e-07
0.000222451
2.94043e-07
0.000222345
2.5574e-07
0.000222234
3.06125e-07
0.000222123
2.46517e-07
5.78657e-07
0.000634307
0.000216842
0.00064405
0.000240305
0.000640936
0.000179262
0.000631424
0.000144929
0.000614914
0.000121485
0.000594926
0.000102262
0.000573634
8.67168e-05
0.000552229
7.45108e-05
0.000531715
6.41818e-05
0.000512658
5.56158e-05
0.00049536
4.81924e-05
0.000479813
4.19119e-05
0.000465924
3.67378e-05
0.000453524
3.22486e-05
0.000442428
2.85341e-05
0.000432476
2.54681e-05
0.00042354
2.28392e-05
0.00041547
2.06117e-05
0.000408144
1.87283e-05
0.000401479
1.70476e-05
0.000395387
1.56328e-05
0.000389795
1.43835e-05
0.000384641
1.33022e-05
0.00037988
1.23138e-05
0.000375466
1.14435e-05
0.000371356
1.07075e-05
0.000367525
1.00157e-05
0.000363938
9.41744e-06
0.00036058
8.84706e-06
0.000357423
8.35132e-06
0.000354446
7.89675e-06
0.000351637
7.48928e-06
0.000348982
7.10112e-06
0.000346466
6.75071e-06
0.000344079
6.43356e-06
0.000341807
6.14117e-06
0.000339645
5.86046e-06
0.000337582
5.61262e-06
0.000335613
5.37328e-06
0.000333731
5.1514e-06
0.000331927
4.95586e-06
0.000330199
4.75839e-06
0.00032854
4.585e-06
0.000326947
4.41032e-06
0.000325415
4.25569e-06
0.00032394
4.10747e-06
0.000322518
3.9716e-06
0.000321148
3.83476e-06
0.000319825
3.71518e-06
0.000318548
3.59155e-06
0.000317314
3.48124e-06
0.00031612
3.37528e-06
0.000314963
3.27709e-06
0.000313843
3.17818e-06
0.000312758
3.08776e-06
0.000311705
2.99941e-06
0.000310684
2.91543e-06
0.000309692
2.83811e-06
0.000308729
2.76063e-06
0.000307793
2.68943e-06
0.000306882
2.61851e-06
0.000305996
2.55288e-06
0.000305134
2.48848e-06
0.000304294
2.42626e-06
0.000303476
2.36956e-06
0.000302679
2.31156e-06
0.000301901
2.25843e-06
0.000301143
2.20409e-06
0.000300404
2.15479e-06
0.000299682
2.10502e-06
0.000298977
2.05836e-06
0.000298288
2.01298e-06
0.000297615
1.97057e-06
0.000296958
1.92752e-06
0.000296315
1.88717e-06
0.000295686
1.84727e-06
0.000295071
1.80909e-06
0.000294469
1.77193e-06
0.000293881
1.7354e-06
0.000293304
1.70168e-06
0.00029274
1.66771e-06
0.000292186
1.63588e-06
0.000291645
1.60352e-06
0.000291114
1.57353e-06
0.000290593
1.5431e-06
0.000290083
1.51439e-06
0.000289583
1.48623e-06
0.000289092
1.45855e-06
0.000288611
1.43268e-06
0.000288138
1.40657e-06
0.000287675
1.38195e-06
0.00028722
1.35711e-06
0.000286773
1.33371e-06
0.000286335
1.31027e-06
0.000285904
1.2877e-06
0.000285481
1.26578e-06
0.000285065
1.24399e-06
0.000284657
1.22365e-06
0.000284256
1.20305e-06
0.000283861
1.18373e-06
0.000283473
1.16389e-06
0.000283092
1.14546e-06
0.000282717
1.12645e-06
0.000282349
1.10889e-06
0.000281986
1.09088e-06
0.000281629
1.07389e-06
0.000281279
1.05709e-06
0.000280933
1.04044e-06
0.000280593
1.0249e-06
0.000280259
1.00886e-06
0.00027993
9.93958e-07
0.000279606
9.78517e-07
0.000279287
9.64301e-07
0.000278973
9.49416e-07
0.000278663
9.3589e-07
0.000278359
9.21619e-07
0.000278059
9.08491e-07
0.000277763
8.95001e-07
0.000277472
8.82265e-07
0.000277185
8.69523e-07
0.000276902
8.57392e-07
0.000276624
8.45009e-07
0.000276349
8.33365e-07
0.000276079
8.21371e-07
0.000275812
8.10213e-07
0.000275549
7.98716e-07
0.00027529
7.87948e-07
0.000275034
7.76937e-07
0.000274782
7.66425e-07
0.000274533
7.56058e-07
0.000274288
7.4575e-07
0.000274047
7.35969e-07
0.000273808
7.26008e-07
0.000273573
7.16567e-07
0.000273341
7.06854e-07
0.000273112
6.97826e-07
0.000272886
6.88453e-07
0.000272663
6.79733e-07
0.000272443
6.70618e-07
0.000272226
6.62256e-07
0.000272012
6.53536e-07
0.000271801
6.4531e-07
0.000271592
6.36968e-07
0.000271386
6.29037e-07
0.000271183
6.21052e-07
0.000270982
6.13308e-07
0.000270784
6.05568e-07
0.000270588
5.98245e-07
0.000270395
5.90658e-07
0.000270204
5.83444e-07
0.000270016
5.76158e-07
0.000269829
5.69312e-07
0.000269646
5.62159e-07
0.000269464
5.55394e-07
0.000269285
5.48686e-07
0.000269108
5.42125e-07
0.000268933
5.35562e-07
0.00026876
5.29134e-07
0.000268589
5.23041e-07
0.000268421
5.16748e-07
0.000268254
5.10685e-07
0.000268089
5.04701e-07
0.000267926
4.99029e-07
0.000267765
4.93011e-07
0.000267606
4.87374e-07
0.000267449
4.81752e-07
0.000267294
4.76485e-07
0.00026714
4.70783e-07
0.000266988
4.65516e-07
0.000266838
4.60226e-07
0.00026669
4.55295e-07
0.000266543
4.4997e-07
0.000266398
4.45179e-07
0.000266255
4.40295e-07
0.000266113
4.35906e-07
0.000265972
4.30766e-07
0.000265833
4.26542e-07
0.000265696
4.21913e-07
0.00026556
4.18204e-07
0.000265425
4.13569e-07
0.000265291
4.1016e-07
0.000265159
4.0625e-07
0.000265028
4.03205e-07
0.000264898
3.99585e-07
0.000264769
3.96463e-07
0.000264642
3.94303e-07
0.000264514
3.90952e-07
0.000264388
3.91084e-07
0.000264262
3.85713e-07
0.000264137
3.90996e-07
0.000264012
3.8012e-07
0.000263887
3.9675e-07
0.000263763
3.73749e-07
0.000263637
4.0923e-07
0.000263513
3.70609e-07
0.000263382
4.24967e-07
0.000263254
3.83863e-07
0.00026312
4.3957e-07
0.000262985
3.81629e-07
7.48523e-07
0.000662834
0.000195873
0.000676972
0.000226168
0.000678736
0.000177497
0.000676809
0.000146856
0.00067087
0.000127423
0.000661399
0.000111733
0.000649247
9.88687e-05
0.000634971
8.87857e-05
0.000619282
7.98708e-05
0.0006028
7.20975e-05
0.000586247
6.47458e-05
0.000570139
5.8019e-05
0.000554853
5.20238e-05
0.000540608
4.64943e-05
0.000527449
4.16932e-05
0.00051536
3.75571e-05
0.000504312
3.38868e-05
0.00049421
3.07136e-05
0.000484953
2.79856e-05
0.000476473
2.55275e-05
0.000468687
2.34195e-05
0.000461513
2.15576e-05
0.000454885
1.99299e-05
0.000448751
1.84481e-05
0.00044306
1.71347e-05
0.00043776
1.60069e-05
0.000432819
1.49569e-05
0.000428197
1.40399e-05
0.00042387
1.31739e-05
0.000419804
1.24171e-05
0.000415977
1.17244e-05
0.000412367
1.10987e-05
0.000408959
1.05094e-05
0.000405734
9.97592e-06
0.000402677
9.49049e-06
0.000399772
9.04619e-06
0.000397009
8.62329e-06
0.000394377
8.24436e-06
0.000391869
7.88213e-06
0.000389473
7.54671e-06
0.000387181
7.24809e-06
0.000384989
6.95089e-06
0.000382886
6.68762e-06
0.000380869
6.42707e-06
0.000378932
6.19292e-06
0.00037707
5.96946e-06
0.000375278
5.76404e-06
0.000373552
5.56026e-06
0.000371888
5.37912e-06
0.000370284
5.19585e-06
0.000368735
5.03066e-06
0.000367237
4.87238e-06
0.00036579
4.72504e-06
0.000364389
4.57884e-06
0.000363033
4.44409e-06
0.000361719
4.31327e-06
0.000360446
4.18865e-06
0.00035921
4.07352e-06
0.000358011
3.9595e-06
0.000356847
3.85392e-06
0.000355716
3.74956e-06
0.000354616
3.65244e-06
0.000353547
3.55772e-06
0.000352507
3.46624e-06
0.000351494
3.38223e-06
0.000350508
3.29755e-06
0.000349547
3.21924e-06
0.000348611
3.14018e-06
0.000347698
3.06765e-06
0.000346808
2.99517e-06
0.00034594
2.92683e-06
0.000345092
2.8606e-06
0.000344264
2.79846e-06
0.000343456
2.73596e-06
0.000342666
2.67713e-06
0.000341894
2.61921e-06
0.000341139
2.56371e-06
0.000340401
2.50985e-06
0.00033968
2.45697e-06
0.000338974
2.40783e-06
0.000338283
2.35882e-06
0.000337606
2.31258e-06
0.000336943
2.26597e-06
0.000336295
2.22246e-06
0.000335659
2.1787e-06
0.000335036
2.13722e-06
0.000334426
2.09666e-06
0.000333827
2.05685e-06
0.000333241
2.01944e-06
0.000332665
1.98198e-06
0.000332101
1.94648e-06
0.000331547
1.91089e-06
0.000331003
1.8772e-06
0.00033047
1.84364e-06
0.000329946
1.81128e-06
0.000329432
1.77986e-06
0.000328928
1.7487e-06
0.000328432
1.71943e-06
0.000327945
1.69007e-06
0.000327466
1.66233e-06
0.000326996
1.6341e-06
0.000326534
1.60767e-06
0.00032608
1.58067e-06
0.000325633
1.55551e-06
0.000325194
1.52993e-06
0.000324762
1.50567e-06
0.000324337
1.48174e-06
0.00032392
1.45808e-06
0.000323509
1.43585e-06
0.000323105
1.41313e-06
0.000322707
1.39184e-06
0.000322315
1.37001e-06
0.00032193
1.3497e-06
0.000321551
1.32871e-06
0.000321177
1.30938e-06
0.000320809
1.28926e-06
0.000320447
1.27055e-06
0.000320091
1.25152e-06
0.00031974
1.23341e-06
0.000319394
1.21541e-06
0.000319053
1.19817e-06
0.000318717
1.1807e-06
0.000318386
1.16418e-06
0.000318061
1.1473e-06
0.000317739
1.13146e-06
0.000317423
1.11528e-06
0.000317111
1.10002e-06
0.000316803
1.08452e-06
0.0003165
1.06966e-06
0.000316201
1.05503e-06
0.000315906
1.04051e-06
0.000315615
1.02667e-06
0.000315329
1.01267e-06
0.000315046
9.9932e-07
0.000314767
9.85699e-07
0.000314492
9.72921e-07
0.000314221
9.59794e-07
0.000313953
9.47461e-07
0.000313689
9.34705e-07
0.000313428
9.22875e-07
0.000313171
9.10678e-07
0.000312917
8.99074e-07
0.000312667
8.87381e-07
0.00031242
8.76203e-07
0.000312176
8.65009e-07
0.000311935
8.54118e-07
0.000311697
8.43273e-07
0.000311463
8.32949e-07
0.000311231
8.22342e-07
0.000311002
8.12201e-07
0.000310776
8.02014e-07
0.000310553
7.92369e-07
0.000310333
7.82375e-07
0.000310116
7.72878e-07
0.000309901
7.63496e-07
0.000309689
7.54292e-07
0.000309479
7.45089e-07
0.000309272
7.36098e-07
0.000309068
7.27558e-07
0.000308866
7.18764e-07
0.000308666
7.10233e-07
0.000308469
7.01876e-07
0.000308274
6.93945e-07
0.000308082
6.85558e-07
0.000307891
6.77625e-07
0.000307703
6.69775e-07
0.000307517
6.62415e-07
0.000307334
6.54475e-07
0.000307152
6.47095e-07
0.000306972
6.39703e-07
0.000306795
6.32845e-07
0.000306619
6.25398e-07
0.000306446
6.18711e-07
0.000306274
6.11814e-07
0.000306105
6.0574e-07
0.000305937
5.98525e-07
0.000305771
5.92731e-07
0.000305606
5.861e-07
0.000305444
5.81075e-07
0.000305283
5.74311e-07
0.000305123
5.69806e-07
0.000304966
5.63814e-07
0.000304809
5.60061e-07
0.000304654
5.54204e-07
0.0003045
5.50695e-07
0.000304348
5.46313e-07
0.000304196
5.43019e-07
0.000304046
5.40958e-07
0.000303896
5.35865e-07
0.000303747
5.3949e-07
0.000303599
5.28821e-07
0.00030345
5.44854e-07
0.000303303
5.21418e-07
0.000303154
5.58461e-07
0.000303006
5.1821e-07
0.000302853
5.7822e-07
0.000302701
5.35301e-07
0.000302545
5.96e-07
0.000302385
5.41101e-07
9.32748e-07
0.000692313
0.000176308
0.000707614
0.000210866
0.00071207
0.000173042
0.000712615
0.00014631
0.000711317
0.000128721
0.000708071
0.000114979
0.000702733
0.000104206
0.00069558
9.59388e-05
0.00068673
8.87211e-05
0.000676228
8.25993e-05
0.000664369
7.66045e-05
0.000651501
7.08872e-05
0.000638046
6.54787e-05
0.000624467
6.00728e-05
0.000611109
5.50516e-05
0.000598217
5.0449e-05
0.000585979
4.6125e-05
0.000574467
4.22253e-05
0.000563692
3.87608e-05
0.000553657
3.55624e-05
0.000544328
3.27482e-05
0.000535654
3.02319e-05
0.000527583
2.80012e-05
0.00052007
2.59608e-05
0.000513074
2.41314e-05
0.000506539
2.25413e-05
0.00050043
2.10658e-05
0.000494706
1.97643e-05
0.000489339
1.85406e-05
0.000484293
1.74631e-05
0.000479542
1.64755e-05
0.00047506
1.55811e-05
0.000470827
1.47425e-05
0.000466822
1.39808e-05
0.000463027
1.32855e-05
0.000459423
1.26506e-05
0.000455997