/*--------------------------------*- C++ -*----------------------------------*\
  =========                 |
  \\      /  F ield         | OpenFOAM: The Open Source CFD Toolbox
   \\    /   O peration     | Website:  https://openfoam.org
    \\  /    A nd           | Version:  12
     \\/     M anipulation  |
\*---------------------------------------------------------------------------*/
FoamFile
{
    format      ascii;
    class       volScalarField;
    location    "500";
    object      k;
}
// * * * * * * * * * * * * * * * * * * * * * * * * * * * * * * * * * * * * * //

dimensions      [0 2 -2 0 0 0 0];

internalField   nonuniform List<scalar> 
20000
(
0.00121539
0.00045655
0.000505717
0.000674905
0.000785941
0.00087443
0.000962122
0.00105499
0.00113205
0.00120303
0.00125072
0.00130255
0.00133578
0.00136898
0.0013972
0.00142302
0.00144267
0.0014597
0.00147324
0.00148555
0.00149479
0.00150255
0.00150865
0.0015135
0.00151758
0.00152024
0.00152218
0.00152336
0.00152367
0.00152351
0.00152301
0.00152192
0.00152039
0.00151864
0.00151652
0.00151419
0.00151175
0.0015091
0.00150617
0.00150324
0.00150011
0.00149694
0.00149365
0.00149031
0.00148693
0.0014835
0.00148
0.00147651
0.00147296
0.00146945
0.00146591
0.0014624
0.00145884
0.00145532
0.00145182
0.00144833
0.00144486
0.0014414
0.00143798
0.00143458
0.00143121
0.00142786
0.00142454
0.00142126
0.00141799
0.00141477
0.00141157
0.00140842
0.00140529
0.00140221
0.00139915
0.00139613
0.00139314
0.00139018
0.00138726
0.00138438
0.00138153
0.00137872
0.00137594
0.00137319
0.00137048
0.0013678
0.00136516
0.00136254
0.00135996
0.00135742
0.0013549
0.00135242
0.00134997
0.00134755
0.00134516
0.0013428
0.00134047
0.00133817
0.0013359
0.00133366
0.00133145
0.00132926
0.00132711
0.00132498
0.00132288
0.0013208
0.00131875
0.00131673
0.00131473
0.00131276
0.00131082
0.0013089
0.001307
0.00130513
0.00130328
0.00130145
0.00129965
0.00129787
0.00129611
0.00129438
0.00129266
0.00129097
0.0012893
0.00128766
0.00128602
0.00128442
0.00128283
0.00128126
0.00127971
0.00127818
0.00127667
0.00127518
0.00127371
0.00127225
0.00127081
0.00126939
0.00126799
0.00126661
0.00126524
0.00126389
0.00126255
0.00126123
0.00125993
0.00125864
0.00125737
0.00125612
0.00125488
0.00125365
0.00125244
0.00125124
0.00125006
0.00124889
0.00124774
0.00124659
0.00124546
0.00124434
0.00124324
0.00124214
0.00124106
0.00123999
0.00123893
0.00123788
0.00123684
0.00123581
0.00123479
0.00123378
0.00123279
0.00123181
0.00123084
0.00122988
0.00122894
0.00122801
0.00122709
0.00122617
0.00122528
0.00122439
0.00122351
0.00122265
0.00122178
0.00122093
0.00122008
0.00121923
0.00121838
0.00121754
0.0012167
0.00121586
0.00121502
0.00121417
0.00121333
0.00121246
0.00121163
0.00121073
0.00120994
0.00120899
0.00120825
0.00120721
0.00120655
0.00120538
0.0012048
0.00120354
0.00120296
0.00120167
0.00120117
0.0011993
0.00309521
0.00342053
0.00442797
0.00580076
0.00659018
0.00721082
0.00780962
0.00842528
0.0089141
0.00935077
0.00962771
0.00992739
0.0101077
0.0102866
0.010434
0.0105669
0.010662
0.0107423
0.010802
0.0108554
0.0108911
0.0109191
0.010938
0.0109504
0.0109591
0.0109602
0.0109578
0.0109516
0.0109411
0.0109283
0.0109141
0.0108971
0.010878
0.0108581
0.0108364
0.010814
0.0107913
0.0107677
0.0107429
0.0107184
0.010693
0.0106677
0.0106419
0.0106162
0.0105904
0.0105645
0.0105384
0.0105127
0.0104867
0.0104612
0.0104356
0.0104104
0.010385
0.01036
0.0103353
0.0103108
0.0102865
0.0102624
0.0102386
0.010215
0.0101917
0.0101687
0.0101459
0.0101234
0.010101
0.0100791
0.0100573
0.0100359
0.0100147
0.00999385
0.00997319
0.00995282
0.00993269
0.00991283
0.00989324
0.00987389
0.00985481
0.00983598
0.0098174
0.00979905
0.00978099
0.00976313
0.00974552
0.00972814
0.00971099
0.00969409
0.00967739
0.00966093
0.00964468
0.00962866
0.00961283
0.00959723
0.00958183
0.00956662
0.00955163
0.00953683
0.00952223
0.00950781
0.0094936
0.00947957
0.00946573
0.00945205
0.00943857
0.00942526
0.00941212
0.00939917
0.00938636
0.00937374
0.00936127
0.00934897
0.00933682
0.00932484
0.009313
0.00930133
0.00928979
0.00927841
0.00926717
0.00925608
0.00924512
0.00923432
0.00922363
0.00921309
0.00920268
0.00919241
0.00918226
0.00917224
0.00916234
0.00915257
0.00914292
0.00913339
0.00912398
0.00911468
0.00910551
0.00909643
0.00908748
0.00907863
0.0090699
0.00906126
0.00905274
0.00904431
0.00903599
0.00902777
0.00901966
0.00901163
0.00900371
0.00899588
0.00898814
0.00898049
0.00897294
0.00896546
0.00895807
0.00895076
0.00894353
0.00893638
0.00892929
0.00892228
0.00891535
0.00890848
0.00890169
0.00889496
0.00888832
0.00888173
0.00887524
0.00886881
0.00886247
0.00885619
0.00885002
0.00884389
0.00883786
0.00883187
0.00882599
0.00882015
0.00881436
0.00880869
0.00880301
0.00879742
0.00879183
0.0087863
0.00878071
0.00877519
0.0087697
0.00876421
0.00875873
0.00875317
0.0087477
0.00874202
0.00873664
0.00873077
0.00872561
0.00871946
0.00871463
0.00870791
0.00870364
0.00869609
0.0086923
0.00868419
0.00868038
0.00867208
0.00866879
0.008657
0.00355493
0.00360063
0.00411383
0.00536327
0.00668231
0.00807075
0.0093528
0.0105356
0.0114747
0.0122836
0.0128606
0.0134051
0.013795
0.0141439
0.0144335
0.0146883
0.014883
0.0150484
0.0151796
0.0152947
0.0153817
0.0154539
0.0155102
0.0155549
0.0155912
0.015616
0.0156329
0.0156435
0.015647
0.0156462
0.015642
0.0156331
0.0156204
0.0156058
0.0155881
0.0155688
0.0155484
0.0155262
0.015502
0.0154775
0.0154516
0.0154253
0.0153981
0.0153704
0.0153425
0.0153141
0.0152853
0.0152566
0.0152274
0.0151985
0.0151694
0.0151405
0.0151113
0.0150824
0.0150537
0.0150251
0.0149967
0.0149684
0.0149404
0.0149125
0.0148849
0.0148575
0.0148304
0.0148035
0.0147768
0.0147505
0.0147244
0.0146986
0.0146731
0.0146478
0.0146228
0.0145982
0.0145737
0.0145496
0.0145258
0.0145022
0.0144789
0.0144559
0.0144332
0.0144108
0.0143886
0.0143667
0.0143451
0.0143238
0.0143027
0.0142819
0.0142613
0.014241
0.014221
0.0142012
0.0141816
0.0141623
0.0141433
0.0141245
0.0141059
0.0140875
0.0140694
0.0140515
0.0140339
0.0140164
0.0139992
0.0139822
0.0139654
0.0139488
0.0139325
0.0139163
0.0139003
0.0138846
0.013869
0.0138537
0.0138385
0.0138235
0.0138087
0.0137941
0.0137797
0.0137654
0.0137513
0.0137374
0.0137237
0.0137102
0.0136968
0.0136835
0.0136705
0.0136576
0.0136448
0.0136322
0.0136198
0.0136075
0.0135954
0.0135834
0.0135716
0.0135599
0.0135483
0.0135369
0.0135256
0.0135145
0.0135035
0.0134926
0.0134819
0.0134713
0.0134608
0.0134504
0.0134402
0.0134301
0.0134201
0.0134102
0.0134004
0.0133908
0.0133813
0.0133718
0.0133625
0.0133533
0.0133441
0.0133351
0.0133262
0.0133173
0.0133085
0.0132998
0.0132912
0.0132827
0.0132743
0.013266
0.0132578
0.0132496
0.0132416
0.0132337
0.0132259
0.0132182
0.0132106
0.0132031
0.0131957
0.0131883
0.0131811
0.013174
0.0131669
0.0131599
0.0131529
0.0131461
0.0131391
0.0131323
0.0131254
0.0131187
0.0131118
0.013105
0.0130981
0.0130912
0.0130844
0.0130773
0.0130707
0.0130633
0.0130571
0.0130491
0.0130434
0.0130346
0.0130295
0.0130199
0.0130148
0.0130053
0.0130003
0.0129883
0.00376345
0.00367999
0.00376213
0.00416026
0.00503526
0.00623648
0.00752925
0.00891378
0.0101732
0.0113387
0.0122828
0.0131475
0.0138485
0.014461
0.0149771
0.0154269
0.0157886
0.0160994
0.0163567
0.0165817
0.0167642
0.0169208
0.0170511
0.0171615
0.0172558
0.0173324
0.0173951
0.017447
0.0174875
0.0175203
0.0175455
0.0175637
0.0175757
0.0175833
0.0175858
0.0175849
0.0175814
0.0175744
0.0175641
0.0175525
0.0175382
0.0175227
0.0175053
0.0174867
0.0174672
0.0174464
0.0174247
0.0174024
0.0173792
0.0173559
0.0173319
0.0173077
0.0172828
0.0172579
0.017233
0.0172078
0.0171824
0.0171571
0.0171317
0.0171064
0.017081
0.0170557
0.0170305
0.0170054
0.0169802
0.0169554
0.0169307
0.0169061
0.0168817
0.0168575
0.0168334
0.0168095
0.0167859
0.0167624
0.0167392
0.0167161
0.0166933
0.0166707
0.0166483
0.0166262
0.0166043
0.0165826
0.0165611
0.0165398
0.0165188
0.016498
0.0164775
0.0164571
0.016437
0.0164171
0.0163975
0.016378
0.0163588
0.0163398
0.016321
0.0163024
0.0162841
0.0162659
0.016248
0.0162302
0.0162127
0.0161954
0.0161783
0.0161614
0.0161447
0.0161282
0.0161118
0.0160957
0.0160797
0.016064
0.0160484
0.0160331
0.0160178
0.0160028
0.015988
0.0159733
0.0159588
0.0159445
0.0159304
0.0159164
0.0159026
0.0158889
0.0158754
0.0158621
0.0158489
0.0158359
0.015823
0.0158103
0.0157977
0.0157853
0.015773
0.0157609
0.0157489
0.0157371
0.0157254
0.0157138
0.0157024
0.0156911
0.0156799
0.0156689
0.015658
0.0156472
0.0156366
0.0156261
0.0156157
0.0156054
0.0155953
0.0155852
0.0155753
0.0155655
0.0155557
0.0155461
0.0155366
0.0155272
0.0155178
0.0155086
0.0154994
0.0154904
0.0154814
0.0154725
0.0154637
0.015455
0.0154465
0.015438
0.0154296
0.0154214
0.0154133
0.0154053
0.0153974
0.0153896
0.015382
0.0153745
0.015367
0.0153597
0.0153524
0.0153453
0.0153382
0.0153312
0.015324
0.0153171
0.01531
0.0153032
0.0152962
0.0152893
0.0152821
0.0152752
0.0152681
0.015261
0.015254
0.0152467
0.01524
0.0152322
0.015226
0.0152174
0.0152118
0.0152023
0.0151967
0.0151873
0.0151818
0.0151705
0.00382063
0.00375778
0.00369076
0.0037345
0.0039523
0.00445012
0.00519596
0.00620961
0.00733342
0.00859183
0.0097795
0.0109196
0.0119288
0.0128209
0.0135943
0.014281
0.014861
0.0153662
0.0157984
0.0161795
0.0165011
0.0167827
0.0170245
0.0172357
0.0174201
0.0175779
0.0177136
0.0178315
0.0179317
0.018019
0.0180932
0.0181564
0.0182096
0.0182549
0.0182921
0.0183233
0.0183486
0.0183689
0.0183838
0.0183955
0.0184029
0.0184075
0.0184088
0.0184077
0.0184046
0.0183989
0.0183915
0.0183826
0.0183721
0.0183605
0.0183476
0.0183339
0.0183189
0.0183034
0.0182872
0.0182703
0.0182529
0.018235
0.0182167
0.0181981
0.0181791
0.0181598
0.0181403
0.0181207
0.0181008
0.0180809
0.0180609
0.0180409
0.0180208
0.0180006
0.0179805
0.0179604
0.0179403
0.0179203
0.0179003
0.0178804
0.0178606
0.017841
0.0178213
0.0178018
0.0177825
0.0177632
0.0177441
0.0177252
0.0177063
0.0176876
0.0176691
0.0176507
0.0176324
0.0176144
0.0175964
0.0175787
0.017561
0.0175436
0.0175263
0.0175092
0.0174922
0.0174754
0.0174588
0.0174423
0.017426
0.0174098
0.0173939
0.017378
0.0173624
0.0173469
0.0173316
0.0173164
0.0173014
0.0172865
0.0172718
0.0172573
0.0172429
0.0172287
0.0172146
0.0172007
0.0171869
0.0171733
0.0171599
0.0171465
0.0171334
0.0171203
0.0171074
0.0170947
0.0170821
0.0170696
0.0170573
0.0170451
0.0170331
0.0170212
0.0170094
0.0169977
0.0169862
0.0169748
0.0169635
0.0169524
0.0169414
0.0169305
0.0169197
0.0169091
0.0168986
0.0168882
0.0168779
0.0168677
0.0168577
0.0168478
0.0168379
0.0168282
0.0168186
0.0168091
0.0167997
0.0167903
0.0167811
0.0167719
0.0167629
0.0167539
0.016745
0.0167362
0.0167274
0.0167188
0.0167103
0.0167018
0.0166935
0.0166853
0.0166772
0.0166692
0.0166614
0.0166537
0.0166462
0.0166387
0.0166314
0.0166242
0.0166171
0.0166102
0.0166033
0.0165965
0.0165897
0.0165832
0.0165763
0.0165698
0.0165631
0.0165567
0.0165499
0.0165434
0.0165365
0.01653
0.016523
0.0165164
0.0165095
0.0165028
0.0164961
0.0164889
0.0164826
0.0164745
0.0164688
0.01646
0.0164542
0.0164455
0.0164398
0.0164297
0.00384396
0.00383109
0.00376466
0.00367993
0.0036861
0.00376945
0.00398484
0.00442407
0.00502147
0.00584578
0.0067953
0.00785326
0.0089286
0.00997732
0.0109525
0.0118583
0.0126703
0.0133988
0.0140401
0.0146137
0.0151133
0.0155557
0.0159436
0.0162863
0.0165884
0.0168536
0.0170871
0.017294
0.0174755
0.0176375
0.0177795
0.0179053
0.0180161
0.0181144
0.0182005
0.0182771
0.0183439
0.0184032
0.0184543
0.0184997
0.0185384
0.0185722
0.0186011
0.0186253
0.0186461
0.018663
0.0186768
0.0186877
0.018696
0.0187021
0.0187059
0.0187079
0.0187078
0.0187065
0.0187037
0.0186995
0.0186941
0.0186878
0.0186804
0.0186722
0.0186631
0.0186534
0.0186429
0.0186319
0.0186202
0.0186083
0.0185959
0.0185831
0.0185699
0.0185564
0.0185427
0.0185287
0.0185146
0.0185002
0.0184857
0.0184711
0.0184563
0.0184415
0.0184266
0.0184117
0.0183967
0.0183817
0.0183666
0.0183516
0.0183365
0.0183216
0.0183066
0.0182916
0.0182767
0.0182619
0.0182471
0.0182323
0.0182176
0.018203
0.0181885
0.0181741
0.0181597
0.0181454
0.0181313
0.0181172
0.0181032
0.0180893
0.0180755
0.0180618
0.0180483
0.0180348
0.0180214
0.0180082
0.017995
0.017982
0.0179691
0.0179563
0.0179436
0.017931
0.0179185
0.0179062
0.0178939
0.0178818
0.0178698
0.0178579
0.0178461
0.0178345
0.0178229
0.0178114
0.0178001
0.0177889
0.0177778
0.0177668
0.0177559
0.0177451
0.0177344
0.0177239
0.0177134
0.0177031
0.0176928
0.0176827
0.0176727
0.0176627
0.0176529
0.0176432
0.0176336
0.0176241
0.0176147
0.0176054
0.0175962
0.0175871
0.0175781
0.0175692
0.0175603
0.0175516
0.0175429
0.0175344
0.0175258
0.0175174
0.017509
0.0175007
0.0174925
0.0174843
0.0174763
0.0174683
0.0174604
0.0174526
0.017445
0.0174374
0.01743
0.0174227
0.0174155
0.0174085
0.0174016
0.0173949
0.0173882
0.0173817
0.0173753
0.0173691
0.0173629
0.0173569
0.0173507
0.0173449
0.0173387
0.0173329
0.0173267
0.017321
0.0173149
0.0173091
0.0173027
0.0172969
0.0172904
0.0172845
0.017278
0.0172719
0.0172656
0.017259
0.017253
0.0172457
0.0172401
0.0172321
0.0172265
0.0172185
0.0172129
0.0172041
0.00384401
0.00388399
0.00384175
0.00374988
0.00368661
0.00363991
0.00365565
0.00373528
0.00391525
0.00425472
0.00472744
0.0053623
0.00612737
0.00699795
0.00791547
0.00885367
0.00976602
0.0106368
0.0114428
0.0121889
0.0128635
0.0134751
0.0140242
0.0145183
0.0149617
0.0153583
0.0157132
0.0160327
0.0163179
0.0165755
0.0168051
0.017012
0.0171976
0.017365
0.0175151
0.0176511
0.0177726
0.0178826
0.017981
0.0180703
0.0181501
0.0182222
0.0182871
0.018345
0.0183974
0.0184441
0.0184859
0.0185233
0.0185564
0.0185861
0.0186121
0.0186352
0.0186552
0.0186727
0.0186879
0.0187009
0.0187118
0.018721
0.0187284
0.0187343
0.0187386
0.0187417
0.0187436
0.0187442
0.0187439
0.0187427
0.0187406
0.0187377
0.018734
0.0187297
0.0187247
0.0187192
0.0187131
0.0187066
0.0186996
0.0186922
0.0186844
0.0186764
0.0186679
0.0186593
0.0186504
0.0186412
0.0186318
0.0186223
0.0186125
0.0186027
0.0185926
0.0185825
0.0185723
0.018562
0.0185516
0.0185411
0.0185305
0.01852
0.0185093
0.0184987
0.018488
0.0184773
0.0184666
0.0184559
0.0184452
0.0184346
0.0184239
0.0184133
0.0184027
0.0183921
0.0183815
0.018371
0.0183606
0.0183501
0.0183398
0.0183295
0.0183192
0.018309
0.0182988
0.0182888
0.0182787
0.0182688
0.0182589
0.018249
0.0182393
0.0182296
0.01822
0.0182104
0.0182009
0.0181915
0.0181822
0.0181729
0.0181637
0.0181546
0.0181456
0.0181366
0.0181277
0.0181189
0.0181102
0.0181015
0.018093
0.0180845
0.018076
0.0180677
0.0180594
0.0180513
0.0180432
0.0180351
0.0180272
0.0180193
0.0180115
0.0180038
0.0179961
0.0179885
0.017981
0.0179735
0.0179661
0.0179587
0.0179514
0.0179441
0.0179369
0.0179297
0.0179227
0.0179157
0.0179088
0.017902
0.0178953
0.0178887
0.0178822
0.0178759
0.0178697
0.0178636
0.0178577
0.0178519
0.0178462
0.0178407
0.0178352
0.01783
0.0178247
0.0178196
0.0178144
0.0178095
0.0178042
0.0177992
0.017794
0.0177892
0.0177838
0.0177789
0.0177733
0.0177683
0.0177625
0.0177574
0.0177515
0.0177463
0.0177405
0.0177348
0.0177293
0.0177229
0.0177175
0.0177105
0.0177052
0.0176981
0.0176926
0.0176853
0.00383058
0.00390649
0.00388325
0.00382035
0.00374802
0.00367334
0.00362242
0.00359141
0.00360446
0.00366411
0.00380031
0.0040475
0.00439844
0.00487563
0.00546168
0.00615094
0.00690934
0.00771345
0.00852554
0.00932897
0.0100994
0.0108289
0.0115088
0.0121384
0.0127175
0.0132477
0.0137305
0.0141719
0.0145722
0.0149383
0.0152697
0.0155717
0.0158462
0.0160964
0.0163239
0.0165322
0.0167209
0.0168939
0.0170512
0.0171956
0.0173271
0.0174477
0.0175582
0.0176588
0.0177513
0.0178358
0.0179134
0.0179843
0.0180492
0.0181089
0.0181633
0.0182132
0.0182587
0.0183003
0.0183384
0.0183732
0.0184047
0.0184336
0.0184598
0.0184835
0.018505
0.0185244
0.0185418
0.0185574
0.0185713
0.0185838
0.0185949
0.0186046
0.018613
0.0186203
0.0186265
0.0186317
0.018636
0.0186394
0.0186421
0.0186439
0.0186451
0.0186456
0.0186455
0.0186449
0.0186438
0.0186421
0.01864
0.0186375
0.0186346
0.0186313
0.0186277
0.0186237
0.0186195
0.018615
0.0186103
0.0186053
0.0186
0.0185946
0.018589
0.0185833
0.0185773
0.0185713
0.0185651
0.0185587
0.0185523
0.0185458
0.0185392
0.0185325
0.0185257
0.0185188
0.0185119
0.018505
0.018498
0.018491
0.0184839
0.0184768
0.0184697
0.0184625
0.0184554
0.0184482
0.0184411
0.0184339
0.0184268
0.0184196
0.0184125
0.0184053
0.0183982
0.0183911
0.018384
0.018377
0.01837
0.018363
0.018356
0.018349
0.0183421
0.0183352
0.0183284
0.0183216
0.0183148
0.0183081
0.0183014
0.0182948
0.0182882
0.0182816
0.0182751
0.0182686
0.0182622
0.0182559
0.0182496
0.0182433
0.0182371
0.0182309
0.0182247
0.0182186
0.0182125
0.0182065
0.0182004
0.0181945
0.0181885
0.0181826
0.0181767
0.0181709
0.0181651
0.0181594
0.0181537
0.0181482
0.0181427
0.0181374
0.0181321
0.018127
0.018122
0.0181172
0.0181125
0.0181079
0.0181034
0.0180991
0.0180947
0.0180907
0.0180865
0.0180826
0.0180785
0.0180747
0.0180705
0.0180667
0.0180625
0.0180587
0.0180543
0.0180505
0.0180458
0.0180418
0.0180369
0.0180327
0.0180277
0.0180234
0.0180183
0.0180136
0.0180086
0.0180032
0.0179984
0.0179923
0.0179875
0.0179813
0.0179762
0.0179704
0.00381067
0.00390555
0.00389799
0.00386148
0.00380191
0.00373319
0.0036692
0.00360859
0.00356653
0.00353702
0.00354421
0.00358247
0.00367373
0.00384682
0.00409414
0.00443557
0.00486839
0.00539246
0.00599038
0.00664773
0.00733948
0.00804681
0.00874968
0.00943493
0.0100922
0.0107163
0.0113013
0.0118491
0.0123567
0.0128286
0.0132637
0.0136654
0.0140354
0.0143765
0.0146902
0.0149803
0.0152461
0.0154919
0.0157179
0.0159269
0.0161193
0.0162973
0.016462
0.0166135
0.0167542
0.0168842
0.0170048
0.0171163
0.0172197
0.0173158
0.0174047
0.0174873
0.017564
0.0176351
0.0177013
0.0177627
0.0178198
0.0178729
0.0179222
0.017968
0.0180105
0.0180501
0.0180869
0.018121
0.0181527
0.0181821
0.0182094
0.0182347
0.0182581
0.0182798
0.0182998
0.0183184
0.0183355
0.0183513
0.0183658
0.0183791
0.0183913
0.0184025
0.0184127
0.018422
0.0184304
0.0184381
0.0184449
0.0184511
0.0184565
0.0184614
0.0184656
0.0184693
0.0184724
0.0184751
0.0184773
0.0184791
0.0184804
0.0184813
0.0184819
0.0184822
0.018482
0.0184817
0.018481
0.0184801
0.0184789
0.0184775
0.0184758
0.018474
0.0184719
0.0184697
0.0184672
0.0184647
0.0184619
0.0184591
0.0184561
0.0184529
0.0184497
0.0184464
0.0184429
0.0184394
0.0184357
0.018432
0.0184282
0.0184244
0.0184205
0.0184165
0.0184125
0.0184084
0.0184043
0.0184002
0.018396
0.0183918
0.0183875
0.0183832
0.0183789
0.0183746
0.0183703
0.0183659
0.0183616
0.0183572
0.0183529
0.0183485
0.0183442
0.0183398
0.0183355
0.0183311
0.0183268
0.0183225
0.0183182
0.0183139
0.0183096
0.0183053
0.018301
0.0182967
0.0182924
0.0182882
0.0182838
0.0182796
0.0182753
0.0182711
0.0182668
0.0182626
0.0182584
0.0182542
0.0182501
0.0182461
0.0182422
0.0182383
0.0182346
0.0182309
0.0182274
0.018224
0.0182207
0.0182175
0.0182144
0.0182115
0.0182086
0.0182059
0.0182031
0.0182005
0.0181977
0.0181952
0.0181924
0.0181898
0.0181868
0.0181842
0.018181
0.0181783
0.0181748
0.0181719
0.0181681
0.018165
0.0181609
0.0181576
0.0181534
0.0181498
0.0181456
0.0181413
0.0181371
0.0181322
0.018128
0.0181228
0.0181181
0.018114
0.00379118
0.00388824
0.00389569
0.00387646
0.0038342
0.00377761
0.00372036
0.0036588
0.00360391
0.00355037
0.00351391
0.00348274
0.00348296
0.00350327
0.0035578
0.00366932
0.00383654
0.00407007
0.00437574
0.00475568
0.0052047
0.00571582
0.0062747
0.0068672
0.00747679
0.00809222
0.00869871
0.00929088
0.0098592
0.0104028
0.0109173
0.0114025
0.0118575
0.012284
0.0126817
0.0130539
0.0133996
0.0137222
0.0140218
0.0143013
0.014561
0.014803
0.0150287
0.0152383
0.015434
0.0156163
0.0157866
0.0159453
0.0160937
0.0162324
0.0163619
0.016483
0.0165964
0.0167025
0.016802
0.0168952
0.0169825
0.0170646
0.0171414
0.0172136
0.0172814
0.0173451
0.0174049
0.0174611
0.017514
0.0175637
0.0176105
0.0176545
0.0176959
0.0177349
0.0177715
0.0178061
0.0178385
0.0178691
0.0178979
0.017925
0.0179505
0.0179745
0.0179971
0.0180183
0.0180383
0.0180571
0.0180748
0.0180914
0.0181069
0.0181216
0.0181353
0.0181482
0.0181603
0.0181716
0.0181822
0.0181921
0.0182013
0.01821
0.018218
0.0182255
0.0182325
0.018239
0.018245
0.0182505
0.0182557
0.0182604
0.0182647
0.0182687
0.0182723
0.0182756
0.0182786
0.0182813
0.0182837
0.0182859
0.0182877
0.0182894
0.0182908
0.018292
0.018293
0.0182938
0.0182944
0.0182949
0.0182952
0.0182953
0.0182952
0.0182951
0.0182947
0.0182943
0.0182937
0.0182931
0.0182923
0.0182914
0.0182904
0.0182893
0.0182881
0.0182869
0.0182856
0.0182842
0.0182827
0.0182812
0.0182796
0.018278
0.0182763
0.0182746
0.0182728
0.018271
0.0182692
0.0182673
0.0182654
0.0182634
0.0182614
0.0182594
0.0182573
0.0182552
0.0182531
0.0182509
0.0182487
0.0182465
0.0182442
0.0182419
0.0182396
0.0182373
0.018235
0.0182327
0.0182304
0.0182282
0.0182261
0.018224
0.018222
0.01822
0.0182182
0.0182165
0.0182149
0.0182134
0.0182119
0.0182106
0.0182093
0.0182082
0.0182069
0.0182059
0.0182046
0.0182036
0.0182022
0.018201
0.0181995
0.0181982
0.0181964
0.018195
0.0181928
0.0181912
0.0181886
0.0181867
0.0181838
0.0181816
0.0181786
0.0181761
0.0181729
0.0181697
0.0181663
0.0181627
0.0181591
0.0181551
0.0181512
0.0181487
0.00377572
0.0038595
0.00388214
0.00387264
0.00384672
0.00380345
0.00375605
0.00370201
0.00365013
0.00359465
0.00354628
0.00349822
0.00346292
0.00343527
0.00342199
0.00343072
0.00345975
0.00352389
0.00363128
0.00378316
0.00398773
0.0042504
0.0045703
0.00494697
0.00537298
0.00584282
0.00634304
0.00686588
0.00739799
0.00793263
0.00846057
0.00897695
0.0094761
0.0099564
0.0104144
0.0108511
0.0112642
0.0116551
0.0120233
0.0123704
0.0126968
0.0130035
0.0132922
0.0135628
0.0138172
0.0140559
0.0142805
0.0144911
0.0146893
0.0148756
0.0150507
0.0152154
0.0153705
0.0155165
0.0156541
0.0157837
0.015906
0.0160214
0.0161302
0.016233
0.0163301
0.0164219
0.0165086
0.0165907
0.0166684
0.0167419
0.0168116
0.0168775
0.0169401
0.0169993
0.0170555
0.0171089
0.0171595
0.0172076
0.0172532
0.0172965
0.0173377
0.0173769
0.017414
0.0174494
0.017483
0.017515
0.0175455
0.0175744
0.0176019
0.0176282
0.0176531
0.0176769
0.0176995
0.017721
0.0177415
0.0177611
0.0177797
0.0177974
0.0178143
0.0178303
0.0178456
0.0178602
0.0178741
0.0178873
0.0178999
0.0179119
0.0179233
0.0179342
0.0179445
0.0179543
0.0179637
0.0179726
0.0179811
0.0179892
0.0179968
0.0180041
0.018011
0.0180176
0.0180238
0.0180298
0.0180354
0.0180407
0.0180458
0.0180506
0.0180551
0.0180594
0.0180635
0.0180673
0.0180709
0.0180744
0.0180776
0.0180806
0.0180835
0.0180862
0.0180887
0.0180911
0.0180933
0.0180954
0.0180974
0.0180992
0.0181009
0.0181025
0.018104
0.0181053
0.0181066
0.0181078
0.0181088
0.0181098
0.0181107
0.0181115
0.0181123
0.0181129
0.0181134
0.0181139
0.0181143
0.0181146
0.0181148
0.018115
0.0181151
0.0181152
0.0181151
0.018115
0.0181149
0.0181148
0.0181147
0.0181146
0.0181145
0.0181145
0.0181145
0.0181146
0.0181147
0.0181149
0.0181153
0.0181156
0.018116
0.0181166
0.0181171
0.0181177
0.0181182
0.0181189
0.0181194
0.01812
0.0181203
0.0181208
0.0181208
0.0181211
0.0181209
0.0181209
0.0181203
0.01812
0.0181189
0.0181183
0.0181168
0.0181159
0.0181141
0.0181128
0.0181108
0.018109
0.0181066
0.0181043
0.0181016
0.0180987
0.018096
0.018095
0.00376521
0.00382737
0.00385897
0.00385673
0.00384319
0.0038133
0.00377566
0.00373067
0.00368522
0.0036354
0.00358784
0.00353896
0.00349335
0.00345224
0.0034158
0.00338956
0.00336806
0.00336757
0.00337897
0.00340955
0.00347194
0.00356659
0.00369583
0.00386776
0.00408341
0.00434592
0.0046524
0.00500239
0.00538855
0.0058061
0.00624629
0.00670272
0.00716662
0.00763294
0.00809475
0.00854924
0.00899158
0.00942033
0.00983293
0.0102288
0.0106075
0.0109681
0.0113119
0.0116379
0.0119476
0.0122408
0.0125189
0.012782
0.0130311
0.013267
0.0134901
0.0137012
0.0139011
0.0140903
0.0142695
0.0144392
0.0146
0.0147526
0.0148971
0.0150342
0.0151643
0.0152878
0.0154051
0.0155165
0.0156224
0.0157231
0.015819
0.0159101
0.0159969
0.0160795
0.0161583
0.0162333
0.0163049
0.0163731
0.0164382
0.0165004
0.0165598
0.0166164
0.0166706
0.0167223
0.0167718
0.0168191
0.0168644
0.0169077
0.0169492
0.0169889
0.0170269
0.0170633
0.0170982
0.0171317
0.0171637
0.0171945
0.017224
0.0172523
0.0172794
0.0173055
0.0173305
0.0173545
0.0173776
0.0173998
0.0174211
0.0174415
0.0174612
0.0174801
0.0174983
0.0175157
0.0175325
0.0175487
0.0175643
0.0175792
0.0175936
0.0176075
0.0176208
0.0176337
0.017646
0.0176579
0.0176694
0.0176804
0.0176911
0.0177013
0.0177112
0.0177207
0.0177298
0.0177387
0.0177472
0.0177554
0.0177633
0.0177709
0.0177783
0.0177853
0.0177922
0.0177988
0.0178051
0.0178113
0.0178172
0.0178229
0.0178284
0.0178337
0.0178388
0.0178438
0.0178486
0.0178532
0.0178577
0.017862
0.0178662
0.0178702
0.0178741
0.0178778
0.0178814
0.0178848
0.0178881
0.0178913
0.0178944
0.0178973
0.0179001
0.0179029
0.0179055
0.017908
0.0179105
0.0179129
0.0179152
0.0179176
0.0179199
0.0179222
0.0179246
0.0179269
0.0179293
0.0179317
0.0179342
0.0179368
0.0179393
0.0179419
0.0179445
0.0179471
0.0179497
0.0179523
0.0179547
0.0179572
0.0179594
0.0179617
0.0179635
0.0179656
0.0179671
0.0179688
0.0179699
0.0179712
0.0179718
0.0179729
0.017973
0.0179734
0.0179731
0.0179732
0.0179724
0.0179722
0.017971
0.01797
0.0179685
0.0179668
0.0179658
0.0179661
0.0037587
0.00379754
0.00382985
0.00383367
0.00382764
0.00380976
0.00378128
0.00374522
0.00370686
0.00366419
0.00362111
0.00357652
0.00353167
0.00348905
0.00344606
0.00340877
0.00337324
0.00334537
0.00332451
0.00330954
0.00331134
0.00332337
0.00335165
0.0034057
0.00348331
0.00358881
0.00372591
0.00389852
0.00410619
0.00435074
0.00462996
0.00494242
0.00528292
0.00564784
0.00603077
0.00642731
0.00683131
0.00723864
0.00764475
0.00804616
0.00844064
0.00882504
0.00919894
0.00956009
0.00990856
0.0102432
0.0105646
0.0108721
0.0111663
0.0114472
0.0117154
0.0119711
0.0122149
0.0124472
0.0126685
0.0128793
0.0130801
0.0132716
0.0134539
0.0136276
0.0137931
0.013951
0.0141014
0.014245
0.0143819
0.0145126
0.0146374
0.0147565
0.0148703
0.0149791
0.0150831
0.0151825
0.0152777
0.0153687
0.0154559
0.0155393
0.0156193
0.0156959
0.0157693
0.0158398
0.0159074
0.0159722
0.0160344
0.0160942
0.0161516
0.0162067
0.0162597
0.0163107
0.0163597
0.0164068
0.0164522
0.0164958
0.0165379
0.0165783
0.0166173
0.0166549
0.0166911
0.016726
0.0167597
0.0167921
0.0168235
0.0168537
0.0168829
0.016911
0.0169382
0.0169645
0.0169899
0.0170144
0.0170382
0.0170611
0.0170833
0.0171047
0.0171254
0.0171455
0.0171649
0.0171837
0.0172019
0.0172196
0.0172366
0.0172532
0.0172692
0.0172847
0.0172997
0.0173143
0.0173285
0.0173422
0.0173555
0.0173684
0.0173809
0.017393
0.0174048
0.0174163
0.0174274
0.0174382
0.0174487
0.0174589
0.0174688
0.0174784
0.0174878
0.0174969
0.0175057
0.0175143
0.0175227
0.0175309
0.0175388
0.0175465
0.017554
0.0175613
0.0175684
0.0175753
0.0175819
0.0175884
0.0175947
0.0176009
0.0176068
0.0176127
0.0176183
0.0176238
0.0176292
0.0176345
0.0176397
0.0176448
0.0176499
0.0176549
0.0176599
0.0176648
0.0176698
0.0176748
0.0176797
0.0176847
0.0176896
0.0176946
0.0176995
0.0177044
0.0177092
0.0177141
0.0177186
0.0177233
0.0177276
0.0177319
0.0177358
0.0177399
0.0177433
0.017747
0.01775
0.0177531
0.0177555
0.0177583
0.0177601
0.0177622
0.0177635
0.0177653
0.0177662
0.0177676
0.0177681
0.0177687
0.0177681
0.0177684
0.0177685
0.0177705
0.00375413
0.00377374
0.0037992
0.0038068
0.00380455
0.00379518
0.00377559
0.00374749
0.00371606
0.00368046
0.00364298
0.00360383
0.003563
0.00352292
0.00348152
0.00344245
0.00340353
0.0033671
0.0033351
0.00330542
0.00328194
0.00326446
0.0032528
0.00325453
0.00326443
0.00328734
0.00332966
0.00339084
0.00347211
0.00357827
0.00371058
0.00387122
0.00406014
0.00427819
0.00452385
0.00479563
0.00509039
0.00540492
0.00573556
0.00607792
0.00642904
0.00678419
0.00714127
0.00749649
0.00784828
0.00819404
0.00853281
0.00886288
0.00918378
0.00949461
0.00979522
0.0100852
0.0103645
0.0106332
0.0108915
0.0111394
0.0113772
0.0116055
0.0118242
0.0120339
0.0122347
0.0124271
0.0126114
0.012788
0.0129572
0.0131193
0.0132748
0.0134236
0.0135664
0.0137033
0.0138345
0.0139604
0.0140813
0.0141973
0.0143086
0.0144155
0.0145183
0.014617
0.0147118
0.0148031
0.0148908
0.0149752
0.0150564
0.0151346
0.0152099
0.0152824
0.0153522
0.0154196
0.0154845
0.0155471
0.0156075
0.0156657
0.015722
0.0157763
0.0158287
0.0158793
0.0159282
0.0159755
0.0160212
0.0160654
0.0161082
0.0161495
0.0161896
0.0162283
0.0162658
0.0163021
0.0163373
0.0163714
0.0164044
0.0164364
0.0164675
0.0164976
0.0165268
0.0165551
0.0165826
0.0166093
0.0166352
0.0166603
0.0166848
0.0167085
0.0167316
0.016754
0.0167757
0.0167969
0.0168175
0.0168375
0.016857
0.0168759
0.0168944
0.0169123
0.0169298
0.0169468
0.0169633
0.0169795
0.0169952
0.0170105
0.0170254
0.01704
0.0170542
0.017068
0.0170815
0.0170947
0.0171075
0.0171201
0.0171323
0.0171442
0.0171559
0.0171672
0.0171783
0.0171891
0.0171997
0.01721
0.01722
0.0172298
0.0172393
0.0172487
0.0172578
0.0172667
0.0172754
0.017284
0.0172924
0.0173007
0.0173089
0.017317
0.017325
0.0173329
0.0173408
0.0173486
0.0173563
0.0173641
0.0173717
0.0173794
0.0173869
0.0173944
0.0174017
0.017409
0.0174161
0.0174232
0.0174299
0.0174365
0.0174427
0.017449
0.0174547
0.0174605
0.0174657
0.0174709
0.0174754
0.01748
0.0174838
0.0174879
0.0174911
0.0174947
0.0174973
0.0175005
0.0175025
0.0175049
0.0175062
0.0175078
0.0175094
0.0175141
0.00375061
0.00375654
0.00377091
0.0037785
0.00377797
0.00377303
0.00376073
0.0037398
0.00371456
0.00368543
0.00365368
0.00362002
0.00358417
0.00354803
0.00351037
0.00347314
0.00343582
0.00339876
0.00336374
0.00332934
0.00329755
0.00326951
0.00324371
0.00322298
0.00320773
0.00319646
0.00319694
0.00320337
0.00321916
0.00325014
0.00329508
0.00335572
0.003434
0.0035325
0.00365232
0.00379449
0.00395961
0.00414764
0.00435832
0.00458974
0.00484093
0.00510861
0.00539113
0.00568487
0.00598773
0.00629639
0.00660882
0.00692222
0.007235
0.00754505
0.00785122
0.00815211
0.0084469
0.00873472
0.00901506
0.00928761
0.00955187
0.00980805
0.0100558
0.0102952
0.0105263
0.0107494
0.0109644
0.0111716
0.0113713
0.0115636
0.0117488
0.0119271
0.0120987
0.012264
0.012423
0.0125762
0.0127237
0.0128657
0.0130024
0.0131341
0.0132611
0.0133833
0.0135011
0.0136147
0.0137242
0.0138299
0.0139317
0.01403
0.0141249
0.0142165
0.0143049
0.0143903
0.0144727
0.0145524
0.0146295
0.0147039
0.014776