/*--------------------------------*- C++ -*----------------------------------*\
  =========                 |
  \\      /  F ield         | OpenFOAM: The Open Source CFD Toolbox
   \\    /   O peration     | Website:  https://openfoam.org
    \\  /    A nd           | Version:  12
     \\/     M anipulation  |
\*---------------------------------------------------------------------------*/
FoamFile
{
    format      ascii;
    class       surfaceScalarField;
    location    "500";
    object      phi;
}
// * * * * * * * * * * * * * * * * * * * * * * * * * * * * * * * * * * * * * //

dimensions      [0 3 -1 0 0 0 0];

internalField   nonuniform List<scalar> 
39700
(
0.000289049
0.000218413
0.000158808
0.000130241
0.000114183
4.46246e-05
9.67874e-05
1.73958e-05
8.76321e-05
9.15522e-06
8.18547e-05
5.77735e-06
7.80669e-05
3.78783e-06
7.53658e-05
2.70109e-06
7.33133e-05
2.0525e-06
7.16116e-05
1.70177e-06
7.01861e-05
1.42551e-06
6.89803e-05
1.20572e-06
6.79018e-05
1.07859e-06
6.699e-05
9.11816e-07
6.61935e-05
7.96491e-07
6.5476e-05
7.17493e-07
6.48192e-05
6.56781e-07
6.42116e-05
6.07512e-07
6.36462e-05
5.65399e-07
6.31267e-05
5.19533e-07
6.26363e-05
4.90341e-07
6.21739e-05
4.62412e-07
6.17365e-05
4.37354e-07
6.13253e-05
4.11207e-07
6.0938e-05
3.87307e-07
6.0565e-05
3.73042e-07
6.02107e-05
3.54309e-07
5.98689e-05
3.41746e-07
5.95433e-05
3.25653e-07
5.92295e-05
3.13772e-07
5.89295e-05
3.00005e-07
5.86383e-05
2.91182e-07
5.83586e-05
2.79725e-07
5.80887e-05
2.6988e-07
5.7827e-05
2.61714e-07
5.7574e-05
2.53034e-07
5.73308e-05
2.43199e-07
5.70938e-05
2.36993e-07
5.68644e-05
2.29421e-07
5.66421e-05
2.2229e-07
5.64251e-05
2.16997e-07
5.62154e-05
2.09622e-07
5.60105e-05
2.04989e-07
5.58125e-05
1.97915e-07
5.5619e-05
1.93571e-07
5.54307e-05
1.88215e-07
5.52465e-05
1.84251e-07
5.50679e-05
1.78534e-07
5.48927e-05
1.75206e-07
5.47229e-05
1.69824e-07
5.45567e-05
1.66223e-07
5.43946e-05
1.62101e-07
5.42357e-05
1.5882e-07
5.4081e-05
1.54698e-07
5.39297e-05
1.51354e-07
5.37819e-05
1.47747e-07
5.36374e-05
1.44508e-07
5.34957e-05
1.41698e-07
5.33574e-05
1.38283e-07
5.32219e-05
1.35589e-07
5.30894e-05
1.32504e-07
5.29594e-05
1.29939e-07
5.28322e-05
1.27195e-07
5.27077e-05
1.24497e-07
5.25853e-05
1.22416e-07
5.24657e-05
1.19638e-07
5.23481e-05
1.17562e-07
5.22332e-05
1.1491e-07
5.21202e-05
1.12991e-07
5.20096e-05
1.10602e-07
5.19009e-05
1.08656e-07
5.17944e-05
1.06586e-07
5.16896e-05
1.04789e-07
5.15868e-05
1.02706e-07
5.14859e-05
1.00933e-07
5.13869e-05
9.90412e-08
5.12896e-05
9.72919e-08
5.1194e-05
9.55437e-08
5.11002e-05
9.37722e-08
5.10079e-05
9.23421e-08
5.09173e-05
9.06059e-08
5.08281e-05
8.91881e-08
5.07405e-05
8.75337e-08
5.06544e-05
8.61915e-08
5.05697e-05
8.46282e-08
5.04864e-05
8.32798e-08
5.04045e-05
8.18889e-08
5.0324e-05
8.05072e-08
5.02447e-05
7.93099e-08
5.01668e-05
7.79457e-08
5.009e-05
7.6784e-08
5.00145e-05
7.54887e-08
4.99402e-05
7.43574e-08
4.9867e-05
7.31447e-08
4.9795e-05
7.2005e-08
4.97241e-05
7.09115e-08
4.96543e-05
6.97519e-08
4.95855e-05
6.88027e-08
4.95178e-05
6.76639e-08
4.94511e-05
6.67433e-08
4.93855e-05
6.56386e-08
4.93207e-05
6.47545e-08
4.9257e-05
6.3693e-08
4.91942e-05
6.28419e-08
4.91323e-05
6.18458e-08
4.90713e-05
6.09774e-08
4.90112e-05
6.00984e-08
4.89521e-05
5.91873e-08
4.88936e-05
5.84347e-08
4.88361e-05
5.75012e-08
4.87793e-05
5.67887e-08
4.87235e-05
5.58801e-08
4.86683e-05
5.52003e-08
4.86139e-05
5.43053e-08
4.85603e-05
5.36678e-08
4.85075e-05
5.28107e-08
4.84553e-05
5.21682e-08
4.84039e-05
5.13729e-08
4.83532e-05
5.073e-08
4.83032e-05
5.00056e-08
4.82538e-05
4.93796e-08
4.82051e-05
4.866e-08
4.8157e-05
4.80619e-08
4.81097e-05
4.7364e-08
4.80629e-05
4.67846e-08
4.80168e-05
4.61107e-08
4.79712e-05
4.55481e-08
4.79263e-05
4.49252e-08
4.7882e-05
4.4345e-08
4.78382e-05
4.37778e-08
4.7795e-05
4.31853e-08
4.77523e-05
4.2682e-08
4.77102e-05
4.20782e-08
4.76686e-05
4.15927e-08
4.76276e-05
4.10086e-08
4.7587e-05
4.05568e-08
4.75471e-05
3.99751e-08
4.75075e-05
3.95391e-08
4.74685e-05
3.89871e-08
4.74299e-05
3.85741e-08
4.73919e-05
3.80426e-08
4.73542e-05
3.76271e-08
4.73171e-05
3.71368e-08
4.72803e-05
3.67302e-08
4.72441e-05
3.62606e-08
4.72082e-05
3.58616e-08
4.71728e-05
3.54083e-08
4.71377e-05
3.50384e-08
4.71031e-05
3.45802e-08
4.70689e-05
3.42157e-08
4.70351e-05
3.37753e-08
4.70017e-05
3.34264e-08
4.69687e-05
3.29821e-08
4.6936e-05
3.26385e-08
4.69038e-05
3.22287e-08
4.68719e-05
3.18871e-08
4.68404e-05
3.14904e-08
4.68092e-05
3.11459e-08
4.67784e-05
3.07806e-08
4.67479e-05
3.04566e-08
4.67178e-05
3.01205e-08
4.66879e-05
2.98235e-08
4.66584e-05
2.94876e-08
4.66292e-05
2.92086e-08
4.66002e-05
2.89337e-08
4.65715e-05
2.87056e-08
4.6543e-05
2.84346e-08
4.65147e-05
2.82523e-08
4.64867e-05
2.80574e-08
4.64587e-05
2.79465e-08
4.64309e-05
2.77394e-08
4.64032e-05
2.76533e-08
4.63757e-05
2.74708e-08
4.63482e-05
2.74355e-08
4.63208e-05
2.73209e-08
4.62934e-05
2.73122e-08
4.62662e-05
2.71427e-08
4.62387e-05
2.73733e-08
4.62115e-05
2.70905e-08
4.61841e-05
2.73777e-08
4.61571e-05
2.68953e-08
4.61296e-05
2.75113e-08
4.61026e-05
2.68925e-08
4.60748e-05
2.7857e-08
4.6048e-05
2.6642e-08
4.60198e-05
2.81975e-08
4.59933e-05
2.64041e-08
4.59646e-05
2.88809e-08
4.59386e-05
2.57454e-08
4.59088e-05
2.97853e-08
4.58837e-05
2.51051e-08
4.58521e-05
3.17617e-08
4.58281e-05
2.38493e-08
4.57937e-05
3.45793e-08
4.57712e-05
2.25141e-08
4.57341e-05
3.74617e-08
4.57129e-05
2.09874e-08
4.56727e-05
4.02406e-08
4.5663e-05
9.65479e-09
1.10753e-07
0.000488266
0.000262025
0.000397814
0.000220693
0.000326642
0.000115797
0.000282375
6.16621e-05
0.000254841
3.66898e-05
0.000236498
2.41197e-05
0.00022353
1.67565e-05
0.000213786
1.24449e-05
0.000206136
9.70217e-06
0.000199859
7.97884e-06
0.000194623
6.66153e-06
0.0001902
5.6295e-06
0.000186359
4.91961e-06
0.000183056
4.21397e-06
0.000180168
3.6846e-06
0.000177592
3.29358e-06
0.00017527
2.97931e-06
0.000173162
2.71498e-06
0.000171233
2.49409e-06
0.00016947
2.2826e-06
0.000167837
2.1239e-06
0.000166321
1.97824e-06
0.000164906
1.85242e-06
0.000163588
1.72888e-06
0.000162357
1.61896e-06
0.000161191
1.53836e-06
0.000160092
1.45322e-06
0.000159049
1.38499e-06
0.000158062
1.31299e-06
0.000157123
1.25304e-06
0.000156229
1.19392e-06
0.000155373
1.14724e-06
0.000154556
1.09679e-06
0.000153774
1.05182e-06
0.000153022
1.01299e-06
0.000152301
9.74373e-07
0.00015161
9.34505e-07
0.000150942
9.04278e-07
0.0001503
8.71825e-07
0.000149681
8.4148e-07
0.000149081
8.16504e-07
0.000148503
7.8775e-07
0.000147943
7.65463e-07
0.000147402
7.38799e-07
0.000146877
7.18379e-07
0.000146368
6.97257e-07
0.000145873
6.79048e-07
0.000145394
6.57834e-07
0.000144927
6.4201e-07
0.000144474
6.22333e-07
0.000144034
6.06631e-07
0.000143605
5.90668e-07
0.000143188
5.7675e-07
0.000142781
5.61134e-07
0.000142385
5.476e-07
0.000141999
5.33789e-07
0.000141622
5.20998e-07
0.000141254
5.09502e-07
0.000140896
4.96905e-07
0.000140545
4.8605e-07
0.000140203
4.7455e-07
0.000139869
4.64413e-07
0.000139542
4.54003e-07
0.000139223
4.43919e-07
0.00013891
4.35347e-07
0.000138604
4.25464e-07
0.000138304
4.17136e-07
0.000138011
4.07748e-07
0.000137724
4.00023e-07
0.000137444
3.91485e-07
0.000137168
3.83929e-07
0.000136899
3.76323e-07
0.000136634
3.69427e-07
0.000136375
3.61962e-07
0.00013612
3.55246e-07
0.000135871
3.48377e-07
0.000135626
3.41898e-07
0.000135386
3.35485e-07
0.000135151
3.29116e-07
0.00013492
3.23566e-07
0.000134693
3.17493e-07
0.00013447
3.12119e-07
0.000134251
3.06305e-07
0.000134036
3.01225e-07
0.000133825
2.95729e-07
0.000133618
2.90748e-07
0.000133414
2.85743e-07
0.000133213
2.80798e-07
0.000133016
2.76336e-07
0.000132823
2.71567e-07
0.000132632
2.67266e-07
0.000132445
2.62719e-07
0.000132261
2.58583e-07
0.00013208
2.54297e-07
0.000131902
2.50219e-07
0.000131726
2.46265e-07
0.000131554
2.42232e-07
0.000131384
2.3867e-07
0.000131217
2.34781e-07
0.000131052
2.31356e-07
0.00013089
2.27588e-07
0.000130731
2.24305e-07
0.000130574
2.20676e-07
0.000130419
2.17534e-07
0.000130267
2.14106e-07
0.000130117
2.10993e-07
0.000129969
2.07868e-07
0.000129823
2.04714e-07
0.00012968
2.01924e-07
0.000129539
1.98795e-07
0.000129399
1.9612e-07
0.000129262
1.93085e-07
0.000129127
1.90533e-07
0.000128993
1.87573e-07
0.000128862
1.85155e-07
0.000128732
1.82311e-07
0.000128605
1.79925e-07
0.000128479
1.77263e-07
0.000128355
1.74908e-07
0.000128232
1.72435e-07
0.000128111
1.70177e-07
0.000127992
1.67739e-07
0.000127875
1.65568e-07
0.000127759
1.63204e-07
0.000127645
1.61116e-07
0.000127532
1.58838e-07
0.000127421
1.56816e-07
0.000127311
1.5467e-07
0.000127203
1.52647e-07
0.000127096
1.50655e-07
0.00012699
1.48633e-07
0.000126886
1.46805e-07
0.000126783
1.44803e-07
0.000126682
1.43039e-07
0.000126582
1.41099e-07
0.000126483
1.3943e-07
0.000126385
1.37526e-07
0.000126289
1.35924e-07
0.000126194
1.34102e-07
0.0001261
1.32569e-07
0.000126007
1.3082e-07
0.000125915
1.29309e-07
0.000125825
1.27668e-07
0.000125735
1.26191e-07
0.000125647
1.2462e-07
0.00012556
1.23189e-07
0.000125473
1.2166e-07
0.000125388
1.20296e-07
0.000125304
1.18773e-07
0.000125221
1.17441e-07
0.000125139
1.15964e-07
0.000125057
1.14676e-07
0.000124977
1.13217e-07
0.000124898
1.11967e-07
0.000124819
1.10597e-07
0.000124742
1.09366e-07
0.000124665
1.08055e-07
0.00012459
1.06858e-07
0.000124515
1.05656e-07
0.000124441
1.04547e-07
0.000124367
1.03439e-07
0.000124295
1.02429e-07
0.000124223
1.01375e-07
0.000124151
1.00455e-07
0.000124081
9.95653e-08
0.000124011
9.87969e-08
0.000123941
9.79965e-08
0.000123872
9.73798e-08
0.000123803
9.67559e-08
0.000123735
9.63257e-08
0.000123667
9.573e-08
0.000123599
9.53896e-08
0.000123531
9.48537e-08
0.000123464
9.46258e-08
0.000123397
9.43173e-08
0.00012333
9.4078e-08
0.000123263
9.37536e-08
0.000123197
9.39544e-08
0.00012313
9.34171e-08
0.000123064
9.36192e-08
0.000122998
9.28504e-08
0.000122932
9.36278e-08
0.000122866
9.27299e-08
0.0001228
9.39704e-08
0.000122734
9.21761e-08
0.000122668
9.43114e-08
0.000122603
9.16675e-08
0.000122537
9.52443e-08
0.000122472
9.05247e-08
0.000122405
9.68205e-08
0.00012234
8.95117e-08
0.000122271
1.00696e-07
0.000122208
8.73065e-08
0.000122135
1.07221e-07
0.000122073
8.49013e-08
0.000121998
1.1333e-07
0.000121934
8.46879e-08
0.000121856
1.17608e-07
0.0001218
6.62841e-08
2.61859e-07
0.000561758
0.000257735
0.000533663
0.000248788
0.000488961
0.000160499
0.000442261
0.000108362
0.000405037
7.39139e-05
0.00037623
5.29265e-05
0.000353829
3.91568e-05
0.000336081
3.01929e-05
0.000321766
2.40173e-05
0.000309972
1.97731e-05
0.000300111
1.65223e-05
0.000291763
1.39782e-05
0.000284585
1.20978e-05
0.000278362
1.04367e-05
0.000272908
9.13865e-06
0.000268063
8.13872e-06
0.000263729
7.31336e-06
0.000259827
6.61676e-06
0.000256284
6.03704e-06
0.000253059
5.50732e-06
0.000250099
5.08413e-06
0.000247373
4.70368e-06
0.000244849
4.37711e-06
0.00024251
4.06779e-06
0.000240334
3.79454e-06
0.000238294
3.57842e-06
0.000236382
3.36549e-06
0.00023458
3.18639e-06
0.000232885
3.00828e-06
0.000231282
2.85605e-06
0.000229763
2.71269e-06
0.00022832
2.59059e-06
0.000226949
2.46777e-06
0.000225644
2.35731e-06
0.000224397
2.25966e-06
0.000223205
2.16615e-06
0.000222066
2.07335e-06
0.000220973
1.99711e-06
0.000219926
1.91965e-06
0.00021892
1.84747e-06
0.00021795
1.7858e-06
0.000217018
1.71981e-06
0.000216119
1.66478e-06
0.000215253
1.60488e-06
0.000214416
1.55519e-06
0.000213607
1.50627e-06
0.000212824
1.4623e-06
0.000212067
1.41501e-06
0.000211332
1.37643e-06
0.000210621
1.33309e-06
0.000209932
1.29617e-06
0.000209263
1.26e-06
0.000208612
1.22737e-06
0.00020798
1.19269e-06
0.000207366
1.16179e-06
0.000206769
1.13098e-06
0.000206188
1.10202e-06
0.000205622
1.07566e-06
0.000205071
1.04809e-06
0.000204533
1.02347e-06
0.00020401
9.98214e-07
0.000203499
9.75383e-07
0.000203
9.52451e-07
0.000202514
9.3029e-07
0.000202038
9.10721e-07
0.000201574
8.89547e-07
0.000201121
8.70857e-07
0.000200677
8.50846e-07
0.000200244
8.33479e-07
0.00019982
8.15207e-07
0.000199406
7.98503e-07
0.000199
7.82021e-07
0.000198603
7.66827e-07
0.000198214
7.50903e-07
0.000197833
7.3625e-07
0.00019746
7.21529e-07
0.000197094
7.07526e-07
0.000196736
6.93771e-07
0.000196385
6.80189e-07
0.00019604
6.67991e-07
0.000195702
6.55212e-07
0.000195371
6.43542e-07
0.000195046
6.31316e-07
0.000194727
6.20296e-07
0.000194414
6.08755e-07
0.000194107
5.98071e-07
0.000193805
5.8747e-07
0.000193509
5.77018e-07
0.000193217
5.67414e-07
0.000192932
5.57445e-07
0.000192651
5.4824e-07
0.000192375
5.38736e-07
0.000192103
5.29928e-07
0.000191837
5.20956e-07
0.000191574
5.12365e-07
0.000191317
5.04021e-07
0.000191063
4.95625e-07
0.000190814
4.87987e-07
0.000190569
4.79973e-07
0.000190327
4.72669e-07
0.00019009
4.64917e-07
0.000189857
4.57925e-07
0.000189627
4.50469e-07
0.0001894
4.43794e-07
0.000189178
4.36733e-07
0.000188959
4.30198e-07
0.000188743
4.23681e-07
0.00018853
4.17168e-07
0.000188321
4.11241e-07
0.000188115
4.04877e-07
0.000187912
3.9918e-07
0.000187712
3.93026e-07
0.000187515
3.87588e-07
0.000187321
3.81617e-07
0.00018713
3.7645e-07
0.000186941
3.70713e-07
0.000186755
3.65655e-07
0.000186572
3.6026e-07
0.000186392
3.55308e-07
0.000186214
3.50252e-07
0.000186039
3.45526e-07
0.000185866
3.40568e-07
0.000185696
3.36024e-07
0.000185528
3.31221e-07
0.000185362
3.2686e-07
0.000185198
3.22237e-07
0.000185037
3.18021e-07
0.000184878
3.13637e-07
0.000184721
3.09469e-07
0.000184567
3.05365e-07
0.000184414
3.01247e-07
0.000184263
2.97428e-07
0.000184115
2.93399e-07
0.000183968
2.89716e-07
0.000183823
2.85815e-07
0.000183681
2.82312e-07
0.00018354
2.78509e-07
0.0001834
2.7515e-07
0.000183263
2.71501e-07
0.000183127
2.68277e-07
0.000182993
2.64778e-07
0.000182861
2.61623e-07
0.00018273
2.58314e-07
0.000182601
2.55237e-07
0.000182474
2.52066e-07
0.000182348
2.49093e-07
0.000182223
2.45993e-07
0.000182101
2.4313e-07
0.000181979
2.40069e-07
0.000181859
2.37279e-07
0.000181741
2.34299e-07
0.000181624
2.31598e-07
0.000181509
2.28686e-07
0.000181395
2.26079e-07
0.000181282
2.23327e-07
0.00018117
2.20787e-07
0.00018106
2.18185e-07
0.000180951
2.15757e-07
0.000180844
2.13382e-07
0.000180737
2.11157e-07
0.000180631
2.08982e-07
0.000180527
2.06972e-07
0.000180423
2.04953e-07
0.000180321
2.03152e-07
0.000180219
2.01438e-07
0.000180118
1.9992e-07
0.000180017
1.98431e-07
0.000179917
1.97193e-07
0.000179818
1.95994e-07
0.000179719
1.9507e-07
0.000179621
1.9396e-07
0.000179523
1.93193e-07
0.000179426
1.9219e-07
0.000179329
1.91581e-07
0.000179232
1.90952e-07
0.000179136
1.90238e-07
0.00017904
1.89659e-07
0.000178945
1.89467e-07
0.000178849
1.88635e-07
0.000178755
1.88342e-07
0.00017866
1.87333e-07
0.000178566
1.87695e-07
0.000178472
1.86691e-07
0.000178379
1.87423e-07
0.000178285
1.85484e-07
0.000178192
1.87151e-07
0.0001781
1.84449e-07
0.000178007
1.87702e-07
0.000177915
1.82698e-07
0.000177822
1.89328e-07
0.000177731
1.81294e-07
0.000177637
1.9442e-07
0.000177546
1.7828e-07
0.000177449
2.03967e-07
0.000177359
1.75229e-07
0.000177259
2.13285e-07
0.000177166
1.77658e-07
0.000177066
2.1755e-07
0.000176974
1.58278e-07
4.14277e-07
0.000603275
0.000238749
0.000602014
0.000250049
0.000586362
0.000176151
0.000559304
0.00013542
0.000528242
0.000104977
0.000498892
8.22762e-05
0.000472622
6.54264e-05
0.00044971
5.31056e-05
0.000430059
4.36677e-05
0.000413273
3.65595e-05
0.000398902
3.08929e-05
0.000386518
2.63626e-05
0.00037577
2.28461e-05
0.000366358
1.98479e-05
0.000358058
1.74392e-05
0.00035068
1.5517e-05
0.00034409
1.39029e-05
0.000338165
1.25414e-05
0.000332801
1.14013e-05
0.000327927
1.03812e-05
0.000323472
9.53943e-06
0.000319384
8.79137e-06
0.000315613
8.14854e-06
0.000312128
7.55276e-06
0.000308894
7.02849e-06
0.000305876
6.59668e-06
0.000303057
6.18414e-06
0.000300413
5.83076e-06
0.000297932
5.48868e-06
0.000295595
5.19317e-06
0.000293388
4.92013e-06
0.000291299
4.67959e-06
0.00028932
4.44593e-06
0.000287443
4.23515e-06
0.000285656
4.04608e-06
0.000283953
3.86927e-06
0.000282329
3.69742e-06
0.000280776
3.54979e-06
0.000279291
3.40445e-06
0.00027787
3.26931e-06
0.000276504
3.15157e-06
0.000275194
3.03017e-06
0.000273933
2.92545e-06
0.000272721
2.8169e-06
0.000271553
2.72322e-06
0.000270426
2.63267e-06
0.000269339
2.55004e-06
0.000268289
2.46473e-06
0.000267273
2.39201e-06
0.000266292
2.31443e-06
0.000265342
2.24632e-06
0.000264421
2.18057e-06
0.000263528
2.12022e-06
0.000262663
2.05812e-06
0.000261823
2.00193e-06
0.000261007
1.94662e-06
0.000260215
1.89424e-06
0.000259444
1.84623e-06
0.000258695
1.7973e-06
0.000257966
1.75282e-06
0.000257256
1.70799e-06
0.000256565
1.66688e-06
0.000255891
1.62616e-06
0.000255234
1.58682e-06
0.000254594
1.55138e-06
0.000253969
1.51435e-06
0.000253359
1.48089e-06
0.000252764
1.44606e-06
0.000252182
1.41497e-06
0.000251614
1.38309e-06
0.000251059
1.35348e-06
0.000250517
1.32453e-06
0.000249986
1.29762e-06
0.000249467
1.26995e-06
0.000248959
1.24419e-06
0.000248462
1.21856e-06
0.000247975
1.19408e-06
0.000247499
1.17017e-06
0.000247033
1.14661e-06
0.000246575
1.12511e-06
0.000246128
1.10311e-06
0.000245688
1.0827e-06
0.000245258
1.06169e-06
0.000244836
1.04243e-06
0.000244422
1.02264e-06
0.000244016
1.0041e-06
0.000243618
9.85837e-07
0.000243227
9.67858e-07
0.000242843
9.51165e-07
0.000242466
9.34125e-07
0.000242096
9.18192e-07
0.000241733
9.01966e-07
0.000241376
8.86768e-07
0.000241026
8.71443e-07
0.000240681
8.56719e-07
0.000240343
8.42419e-07
0.000240011
8.28125e-07
0.000239684
8.14912e-07
0.000239362
8.01352e-07
0.000239046
7.88773e-07
0.000238735
7.75682e-07
0.00023843
7.63652e-07
0.000238129
7.51085e-07
0.000237833
7.39618e-07
0.000237542
7.27707e-07
0.000237256
7.16552e-07
0.000236974
7.05485e-07
0.000236697
6.94481e-07
0.000236424
6.84309e-07
0.000236155
6.73646e-07
0.00023589
6.63874e-07
0.00023563
6.53585e-07
0.000235373
6.44257e-07
0.00023512
6.34309e-07
0.000234871
6.25432e-07
0.000234626
6.15882e-07
0.000234385
6.07234e-07
0.000234147
5.98227e-07
0.000233912
5.89802e-07
0.000233681
5.81323e-07
0.000233453
5.73299e-07
0.000233229
5.65013e-07
0.000233008
5.57305e-07
0.000232789
5.49293e-07
0.000232574
5.419e-07
0.000232362
5.34193e-07
0.000232153
5.27056e-07
0.000231947
5.19725e-07
0.000231744
5.12717e-07
0.000231544
5.0582e-07
0.000231346
4.98942e-07
0.000231151
4.92475e-07
0.000230958
4.85792e-07
0.000230769
4.79564e-07
0.000230581
4.73097e-07
0.000230397
4.67157e-07
0.000230214
4.60879e-07
0.000230034
4.55187e-07
0.000229856
4.49156e-07
0.000229681
4.43684e-07
0.000229508
4.37902e-07
0.000229337
4.32564e-07
0.000229168
4.2707e-07
0.000229002
4.21872e-07
0.000228837
4.16599e-07
0.000228675
4.11583e-07
0.000228514
4.06424e-07
0.000228356
4.0157e-07
0.000228199
3.96498e-07
0.000228045
3.91775e-07
0.000227892
3.86832e-07
0.000227742
3.82263e-07
0.000227593
3.77466e-07
0.000227446
3.73075e-07
0.000227301
3.6854e-07
0.000227157
3.64291e-07
0.000227015
3.60034e-07
0.000226875
3.56022e-07
0.000226736
3.52143e-07
0.000226599
3.48482e-07
0.000226463
3.44954e-07
0.000226328
3.41672e-07
0.000226195
3.38437e-07
0.000226062
3.35508e-07
0.000225931
3.32748e-07
0.000225801
3.30268e-07
0.000225671
3.27891e-07
0.000225542
3.25821e-07
0.000225415
3.23868e-07
0.000225287
3.22248e-07
0.000225161
3.2044e-07
0.000225035
3.19018e-07
0.00022491
3.17367e-07
0.000224785
3.16127e-07
0.000224661
3.14957e-07
0.000224538
3.13484e-07
0.000224415
3.12469e-07
0.000224293
3.11534e-07
0.000224171
3.10237e-07
0.00022405
3.09046e-07
0.00022393
3.077e-07
0.00022381
3.07149e-07
0.000223691
3.05964e-07
0.000223573
3.05585e-07
0.000223455
3.03617e-07
0.000223338
3.04091e-07
0.000223221
3.01577e-07
0.000223105
3.03594e-07
0.000222989
2.98864e-07
0.000222873
3.04686e-07
0.000222758
2.96717e-07
0.000222642
3.10327e-07
0.000222528
2.92788e-07
0.00022241
3.21911e-07
0.000222296
2.89245e-07
0.000222175
3.3465e-07
0.000222058
2.94176e-07
0.000221937
3.38791e-07
0.000221818
2.76665e-07
5.72622e-07
0.000634307
0.000216843
0.00064405
0.000240306
0.000640936
0.000179265
0.000631423
0.000144932
0.000614913
0.000121487
0.000594926
0.000102264
0.000573634
8.67181e-05
0.00055223
7.45097e-05
0.000531716
6.41813e-05
0.000512662
5.5614e-05
0.000495364
4.81902e-05
0.000479818
4.19094e-05
0.000465928
3.67356e-05
0.000453529
3.22473e-05
0.000442434
2.85344e-05
0.000432482
2.54688e-05
0.000423545
2.28398e-05
0.000415475
2.06116e-05
0.000408149
1.87274e-05
0.000401483
1.70463e-05
0.000395391
1.56315e-05
0.0003898
1.43828e-05
0.000384646
1.33019e-05
0.000379886
1.23135e-05
0.000375471
1.14428e-05
0.000371361
1.07069e-05
0.00036753
1.00155e-05
0.000363943
9.41715e-06
0.000360585
8.84667e-06
0.000357428
8.35075e-06
0.000354452
7.89611e-06
0.000351642
7.48902e-06
0.000348987
7.10123e-06
0.000346472
6.75069e-06
0.000344084
6.43345e-06
0.000341813
6.14089e-06
0.00033965
5.86019e-06
0.000337587
5.61264e-06
0.000335618
5.37343e-06
0.000333736
5.15146e-06
0.000331932
4.95561e-06
0.000330204
4.75791e-06
0.000328545
4.58449e-06
0.000326952
4.40989e-06
0.00032542
4.25549e-06
0.000323945
4.10748e-06
0.000322523
3.97169e-06
0.000321153
3.83481e-06
0.00031983
3.71506e-06
0.000318553
3.59131e-06
0.000317319
3.48085e-06
0.000316124
3.37485e-06
0.000314968
3.27665e-06
0.000313848
3.17777e-06
0.000312763
3.08738e-06
0.00031171
2.99914e-06
0.000310689
2.9152e-06
0.000309698
2.83794e-06
0.000308735
2.76051e-06
0.000307798
2.68935e-06
0.000306888
2.61844e-06
0.000306002
2.55282e-06
0.000305139
2.48843e-06
0.0003043
2.42622e-06
0.000303482
2.36951e-06
0.000302685
2.31152e-06
0.000301907
2.2584e-06
0.000301149
2.20408e-06
0.000300409
2.15478e-06
0.000299687
2.105e-06
0.000298982
2.05834e-06
0.000298294
2.01297e-06
0.000297621
1.97055e-06
0.000296964
1.92749e-06
0.000296321
1.88714e-06
0.000295692
1.84725e-06
0.000295077
1.80904e-06
0.000294475
1.77188e-06
0.000293887
1.73532e-06
0.00029331
1.70162e-06
0.000292746
1.66764e-06
0.000292192
1.6358e-06
0.000291651
1.60342e-06
0.00029112
1.57342e-06
0.000290599
1.54297e-06
0.000290089
1.51423e-06
0.000289589
1.48606e-06
0.000289099
1.45836e-06
0.000288617
1.43246e-06
0.000288145
1.40631e-06
0.000287682
1.38167e-06
0.000287227
1.35681e-06
0.00028678
1.33336e-06
0.000286342
1.30988e-06
0.000285911
1.28727e-06
0.000285488
1.26533e-06
0.000285073
1.24347e-06
0.000284665
1.22308e-06
0.000284264
1.20244e-06
0.000283869
1.18308e-06
0.000283482
1.16318e-06
0.000283101
1.14469e-06
0.000282726
1.12563e-06
0.000282358
1.10802e-06
0.000281996
1.08995e-06
0.000281639
1.0729e-06
0.000281289
1.05604e-06
0.000280944
1.03933e-06
0.000280604
1.02373e-06
0.00028027
1.00763e-06
0.000279942
9.92657e-07
0.000279618
9.77146e-07
0.000279299
9.6286e-07
0.000278986
9.47902e-07
0.000278677
9.34296e-07
0.000278373
9.19947e-07
0.000278073
9.06738e-07
0.000277778
8.93181e-07
0.000277488
8.80358e-07
0.000277202
8.67558e-07
0.00027692
8.55356e-07
0.000276642
8.42884e-07
0.000276368
8.31174e-07
0.000276098
8.19137e-07
0.000275832
8.07909e-07
0.00027557
7.96334e-07
0.000275311
7.85506e-07
0.000275057
7.7448e-07
0.000274805
7.63896e-07
0.000274558
7.53488e-07
0.000274314
7.43146e-07
0.000274073
7.33343e-07
0.000273835
7.23335e-07
0.000273601
7.13902e-07
0.00027337
7.04228e-07
0.000273142
6.95219e-07
0.000272917
6.85849e-07
0.000272695
6.77216e-07
0.000272476
6.68212e-07
0.000272259
6.59907e-07
0.000272046
6.51274e-07
0.000271835
6.4319e-07
0.000271627
6.34961e-07
0.000271422
6.27097e-07
0.00027122
6.19189e-07
0.00027102
6.11601e-07
0.000270822
6.03865e-07
0.000270627
5.96511e-07
0.000270435
5.88928e-07
0.000270245
5.81779e-07
0.000270057
5.74394e-07
0.000269872
5.6749e-07
0.000269689
5.60357e-07
0.000269508
5.53737e-07
0.00026933
5.46998e-07
0.000269154
5.40636e-07
0.000268979
5.34345e-07
0.000268807
5.28381e-07
0.000268636
5.22653e-07
0.000268468
5.17229e-07
0.0002683
5.12042e-07
0.000268135
5.0719e-07
0.000267971
5.02465e-07
0.000267808
4.98145e-07
0.000267647
4.94083e-07
0.000267487
4.90388e-07
0.000267328
4.86883e-07
0.00026717
4.83735e-07
0.000267013
4.80794e-07
0.000266857
4.78216e-07
0.000266702
4.75469e-07
0.000266548
4.73123e-07
0.000266395
4.70576e-07
0.000266242
4.68397e-07
0.000266091
4.664e-07
0.000265941
4.63848e-07
0.000265791
4.62091e-07
0.000265642
4.60026e-07
0.000265495
4.58e-07
0.000265348
4.55509e-07
0.000265202
4.53553e-07
0.000265058
4.51612e-07
0.000264914
4.50011e-07
0.000264771
4.4802e-07
0.000264629
4.45871e-07
0.000264488
4.44597e-07
0.000264348
4.42219e-07
0.000264209
4.42376e-07
0.00026407
4.37979e-07
0.000263932
4.42256e-07
0.000263794
4.34594e-07
0.000263657
4.47725e-07
0.00026352
4.29446e-07
0.000263382
4.60421e-07
0.000263246
4.25284e-07
0.000263104
4.7626e-07
0.000262966
4.32259e-07
0.000262824
4.80861e-07
0.000262683
4.18022e-07
7.40884e-07
0.000662834
0.000195874
0.000676972
0.000226169
0.000678736
0.000177502
0.000676809
0.00014686
0.00067087
0.000127426
0.000661398
0.000111735
0.000649246
9.88697e-05
0.000634972
8.87843e-05
0.000619283
7.98703e-05
0.000602803
7.20943e-05
0.000586251
6.47418e-05
0.000570145
5.80159e-05
0.000554858
5.20219e-05
0.000540613
4.6493e-05
0.000527454
4.16929e-05
0.000515366
3.75574e-05
0.000504318
3.38873e-05
0.000494216
3.07135e-05
0.000484959
2.79848e-05
0.000476479
2.55263e-05
0.000468692
2.34181e-05
0.000461519
2.15565e-05
0.000454891
1.99292e-05
0.000448757
1.84477e-05
0.000443066
1.7134e-05
0.000437767
1.60063e-05
0.000432825
1.49566e-05
0.000428203
1.40396e-05
0.000423876
1.31734e-05
0.00041981
1.24165e-05
0.000415983
1.17237e-05
0.000412374
1.10983e-05
0.000408965
1.05095e-05
0.00040574
9.97597e-06
0.000402683
9.49049e-06
0.000399778
9.04597e-06
0.000397015
8.62303e-06
0.000394383
8.24433e-06
0.000391875
7.88224e-06
0.000389479
7.54681e-06
0.000387187
7.24794e-06
0.000384994
6.95047e-06
0.000382892
6.68712e-06
0.000380875
6.42661e-06
0.000378938
6.19265e-06
0.000377076
5.96942e-06
0.000375283
5.76412e-06
0.000373558
5.56034e-06
0.000371894
5.37906e-06
0.00037029
5.19565e-06
0.00036874
5.0303e-06
0.000367243
4.87195e-06
0.000365795
4.72457e-06
0.000364394
4.57837e-06
0.000363038
4.44362e-06
0.000361724
4.31291e-06
0.000360451
4.18832e-06
0.000359216
4.07326e-06
0.000358017
3.95931e-06
0.000356853
3.85379e-06
0.000355722
3.74945e-06
0.000354622
3.65233e-06
0.000353553
3.55764e-06
0.000352513
3.46617e-06
0.0003515
3.38216e-06
0.000350515
3.29749e-06
0.000349554
3.21919e-06
0.000348618
3.14015e-06
0.000347705
3.06762e-06
0.000346815
2.99513e-06
0.000345946
2.92679e-06
0.000345099
2.86056e-06
0.000344271
2.79841e-06
0.000343462
2.73589e-06
0.000342672
2.67707e-06
0.000341901
2.61915e-06
0.000341146
2.56362e-06
0.000340408
2.50976e-06
0.000339687
2.45684e-06
0.00033898
2.40772e-06
0.000338289
2.35869e-06
0.000337613
2.31244e-06
0.00033695
2.26582e-06
0.000336301
2.2223e-06
0.000335666
2.1785e-06
0.000335043
2.13699e-06
0.000334433
2.09641e-06
0.000333835
2.05656e-06
0.000333248
2.01912e-06
0.000332673
1.98161e-06
0.000332108
1.94608e-06
0.000331555
1.91046e-06
0.000331011
1.87671e-06
0.000330478
1.84309e-06
0.000329955
1.81068e-06
0.000329441
1.77922e-06
0.000328936
1.74798e-06
0.000328441
1.71864e-06
0.000327954
1.68922e-06
0.000327476
1.66143e-06
0.000327006
1.63312e-06
0.000326544
1.6066e-06
0.00032609
1.57953e-06
0.000325643
1.55431e-06
0.000325205
1.52864e-06
0.000324773
1.50429e-06
0.000324349
1.48028e-06
0.000323932
1.45654e-06
0.000323521
1.43423e-06
0.000323118
1.41143e-06
0.00032272
1.39004e-06
0.000322329
1.36811e-06
0.000321944
1.34771e-06
0.000321566
1.32661e-06
0.000321193
1.30717e-06
0.000320826
1.28694e-06
0.000320465
1.26812e-06
0.000320109
1.24898e-06
0.000319758
1.23076e-06
0.000319413
1.21267e-06
0.000319073
1.19533e-06
0.000318738
1.17773e-06
0.000318408
1.16112e-06
0.000318083
1.14416e-06
0.000317763
1.12823e-06
0.000317447
1.11194e-06
0.000317136
1.09659e-06
0.00031683
1.08105e-06
0.000316528
1.06609e-06
0.00031623
1.0514e-06
0.000315936
1.03683e-06
0.000315646
1.02294e-06
0.000315361
1.00888e-06
0.000315079
9.95529e-07
0.000314802
9.81951e-07
0.000314528
9.69189e-07
0.000314257
9.56062e-07
0.000313991
9.4383e-07
0.000313728
9.31211e-07
0.000313468
9.19441e-07
0.000313212
9.07337e-07
0.000312959
8.95896e-07
0.00031271
8.84334e-07
0.000312464
8.73213e-07
0.000312221
8.62093e-07
0.000311981
8.51365e-07
0.000311745
8.40494e-07
0.000311511
8.3009e-07
0.000311281
8.19459e-07
0.000311053
8.09357e-07
0.000310828
7.99016e-07
0.000310607
7.8928e-07
0.000310388
7.79325e-07
0.000310171
7.70004e-07
0.000309958
7.60613e-07
0.000309747
7.51702e-07
0.000309538
7.42962e-07
0.000309332
7.34646e-07
0.000309128
7.26684e-07
0.000308926
7.19126e-07
0.000308726
7.11925e-07
0.000308528
7.05167e-07
0.000308332
6.98629e-07
0.000308137
6.92597e-07
0.000307944
6.86917e-07
0.000307753
6.81701e-07
0.000307563
6.76759e-07
0.000307375
6.72228e-07
0.000307188
6.67995e-07
0.000307002
6.64142e-07
0.000306817
6.60142e-07
0.000306633
6.5653e-07
0.000306451
6.52762e-07
0.00030627
6.49274e-07
0.000306091
6.46091e-07
0.000305912
6.42087e-07
0.000305735
6.39239e-07
0.000305559
6.35639e-07
0.000305385
6.32536e-07
0.000305212
6.2831e-07
0.00030504
6.25417e-07
0.00030487
6.21613e-07
0.000304701
6.19262e-07
0.000304534
6.15189e-07
0.000304367
6.12614e-07
0.000304202
6.09103e-07
0.000304038
6.06621e-07
0.000303876
6.04394e-07
0.000303714
6.00217e-07
0.000303554
6.02343e-07
0.000303393
5.94971e-07
0.000303234
6.06859e-07
0.000303075
5.8826e-07
0.000302916
6.19773e-07
0.000302758
5.83215e-07
0.000302597
6.37975e-07
0.000302437
5.91597e-07
0.000302274
6.43858e-07
0.000302111
5.8134e-07
9.21701e-07
0.000692313
0.00017631
0.000707615
0.000210867
0.00071207
0.000173047
0.000712615
0.000146314
0.000711317
0.000128724
0.000708071
0.000114981
0.000702733
0.000104207
0.000695581
9.59367e-05
0.000686731
8.87202e-05
0.00067623
8.25954e-05
0.000664373
7.65989e-05
0.000651506
7.08823e-05
0.000638052
6.54765e-05
0.000624473
6.00718e-05
0.000611115
5.50512e-05
0.000598223
5.04488e-05
0.000585985
4.6125e-05
0.000574474
4.2225e-05
0.000563699
3.876e-05
0.000553664
3.55614e-05
0.000544335
3.27469e-05
0.000535661
3.02307e-05
0.00052759
2.80001e-05
0.000520077
2.596e-05
0.000513081
2.41306e-05
0.000506546
2.25407e-05
0.000500437
2.10655e-05
0.000494713
1.9764e-05
0.000489346
1.85401e-05
0.0004843
1.74625e-05
0.000479549
1.64748e-05
0.000475067
1.55806e-05
0.000470834
1.47425e-05
0.000466829
1.39808e-05
0.000463034
1.32856e-05
0.000459429
1.26505e-05