/*--------------------------------*- C++ -*----------------------------------*\
  =========                 |
  \\      /  F ield         | OpenFOAM: The Open Source CFD Toolbox
   \\    /   O peration     | Website:  https://openfoam.org
    \\  /    A nd           | Version:  12
     \\/     M anipulation  |
\*---------------------------------------------------------------------------*/
FoamFile
{
    format      ascii;
    class       volVectorField;
    location    "500";
    object      U;
}
// * * * * * * * * * * * * * * * * * * * * * * * * * * * * * * * * * * * * * //

dimensions      [0 1 -1 0 0 0 0];

internalField   nonuniform List<vector> 
20000
(
(0.696546 -0.0953482 0)
(0.391225 -0.00674947 0)
(0.255428 0.000249527 0)
(0.201814 0.00018304 0)
(0.179405 0.000130809 0)
(0.165877 7.44501e-05 0)
(0.156865 1.49723e-05 0)
(0.15083 -6.61888e-06 0)
(0.146228 -1.39806e-05 0)
(0.142709 -8.91676e-06 0)
(0.139522 -8.2063e-06 0)
(0.137099 -7.76282e-06 0)
(0.134762 -2.84826e-06 0)
(0.132854 -6.35879e-06 0)
(0.131169 -6.21454e-06 0)
(0.129714 -4.6761e-06 0)
(0.128343 -2.90022e-06 0)
(0.127118 -1.29493e-06 0)
(0.125949 -1.05702e-07 0)
(0.124896 1.5408e-07 0)
(0.123897 1.44648e-06 0)
(0.122963 2.27118e-06 0)
(0.122077 2.84635e-06 0)
(0.121238 3.11031e-06 0)
(0.120459 3.31891e-06 0)
(0.119707 4.11339e-06 0)
(0.118992 4.20032e-06 0)
(0.118307 4.76146e-06 0)
(0.117649 4.7978e-06 0)
(0.11702 5.11354e-06 0)
(0.116417 5.06077e-06 0)
(0.115834 5.43356e-06 0)
(0.115271 5.42175e-06 0)
(0.114731 5.50773e-06 0)
(0.114207 5.63933e-06 0)
(0.113699 5.64156e-06 0)
(0.113211 5.50887e-06 0)
(0.11274 5.66407e-06 0)
(0.112278 5.62284e-06 0)
(0.111835 5.58802e-06 0)
(0.111401 5.66749e-06 0)
(0.110982 5.51225e-06 0)
(0.110572 5.60619e-06 0)
(0.110176 5.41294e-06 0)
(0.10979 5.48411e-06 0)
(0.109415 5.38469e-06 0)
(0.109047 5.42259e-06 0)
(0.108691 5.25693e-06 0)
(0.108341 5.31517e-06 0)
(0.108002 5.14155e-06 0)
(0.107671 5.14589e-06 0)
(0.107348 5.05736e-06 0)
(0.107031 5.04128e-06 0)
(0.106722 4.93106e-06 0)
(0.106421 4.88605e-06 0)
(0.106126 4.80204e-06 0)
(0.105838 4.74529e-06 0)
(0.105556 4.70876e-06 0)
(0.10528 4.60658e-06 0)
(0.105011 4.56855e-06 0)
(0.104746 4.48255e-06 0)
(0.104488 4.43684e-06 0)
(0.104234 4.36692e-06 0)
(0.103987 4.29488e-06 0)
(0.103743 4.27166e-06 0)
(0.103505 4.17101e-06 0)
(0.103271 4.13988e-06 0)
(0.103042 4.04359e-06 0)
(0.102818 4.01702e-06 0)
(0.102598 3.9331e-06 0)
(0.102382 3.89305e-06 0)
(0.10217 3.82981e-06 0)
(0.101961 3.7883e-06 0)
(0.101757 3.71641e-06 0)
(0.101556 3.67216e-06 0)
(0.101359 3.61103e-06 0)
(0.101166 3.56067e-06 0)
(0.100976 3.50716e-06 0)
(0.100789 3.44832e-06 0)
(0.100606 3.41732e-06 0)
(0.100426 3.35104e-06 0)
(0.100248 3.31606e-06 0)
(0.100074 3.2542e-06 0)
(0.0999032 3.22061e-06 0)
(0.0997349 3.16221e-06 0)
(0.0995696 3.12309e-06 0)
(0.0994067 3.07606e-06 0)
(0.0992468 3.02902e-06 0)
(0.0990893 2.99564e-06 0)
(0.0989344 2.94357e-06 0)
(0.0987819 2.91028e-06 0)
(0.0986319 2.86181e-06 0)
(0.0984843 2.82718e-06 0)
(0.0983389 2.78277e-06 0)
(0.098196 2.74375e-06 0)
(0.0980551 2.70799e-06 0)
(0.0979166 2.66348e-06 0)
(0.09778 2.6377e-06 0)
(0.0976456 2.59004e-06 0)
(0.0975131 2.56464e-06 0)
(0.0973828 2.51858e-06 0)
(0.0972542 2.49373e-06 0)
(0.0971277 2.44969e-06 0)
(0.0970031 2.42515e-06 0)
(0.0968801 2.38482e-06 0)
(0.0967592 2.35565e-06 0)
(0.0966398 2.32434e-06 0)
(0.0965224 2.28885e-06 0)
(0.0964064 2.26724e-06 0)
(0.0962923 2.2258e-06 0)
(0.0961796 2.20722e-06 0)
(0.0960687 2.16639e-06 0)
(0.0959592 2.1486e-06 0)
(0.0958514 2.10698e-06 0)
(0.0957449 2.09155e-06 0)
(0.0956401 2.05205e-06 0)
(0.0955366 2.03435e-06 0)
(0.0954346 1.9987e-06 0)
(0.0953339 1.97952e-06 0)
(0.0952347 1.94944e-06 0)
(0.0951368 1.92897e-06 0)
(0.0950402 1.8982e-06 0)
(0.0949449 1.87934e-06 0)
(0.0948509 1.84959e-06 0)
(0.0947581 1.83043e-06 0)
(0.0946666 1.80149e-06 0)
(0.0945763 1.78295e-06 0)
(0.0944871 1.75792e-06 0)
(0.0943992 1.73588e-06 0)
(0.0943123 1.71481e-06 0)
(0.0942267 1.69037e-06 0)
(0.094142 1.67426e-06 0)
(0.0940586 1.6465e-06 0)
(0.093976 1.63125e-06 0)
(0.0938947 1.60481e-06 0)
(0.0938143 1.59176e-06 0)
(0.093735 1.56389e-06 0)
(0.0936566 1.551e-06 0)
(0.0935792 1.52541e-06 0)
(0.0935027 1.51384e-06 0)
(0.0934273 1.4885e-06 0)
(0.0933527 1.47552e-06 0)
(0.093279 1.45361e-06 0)
(0.0932062 1.44058e-06 0)
(0.0931343 1.41924e-06 0)
(0.0930631 1.40605e-06 0)
(0.092993 1.38688e-06 0)
(0.0929235 1.37626e-06 0)
(0.0928549 1.35528e-06 0)
(0.092787 1.3447e-06 0)
(0.0927201 1.3258e-06 0)
(0.0926538 1.31587e-06 0)
(0.0925884 1.2952e-06 0)
(0.0925236 1.28534e-06 0)
(0.0924598 1.26805e-06 0)
(0.0923965 1.25687e-06 0)
(0.0923341 1.23883e-06 0)
(0.0922723 1.22561e-06 0)
(0.0922114 1.20858e-06 0)
(0.0921509 1.19444e-06 0)
(0.0920913 1.17864e-06 0)
(0.0920321 1.16498e-06 0)
(0.0919738 1.14611e-06 0)
(0.0919157 1.13073e-06 0)
(0.0918585 1.11594e-06 0)
(0.0918016 1.10341e-06 0)
(0.0917454 1.0845e-06 0)
(0.0916893 1.07414e-06 0)
(0.091634 1.06273e-06 0)
(0.0915786 1.05747e-06 0)
(0.0915239 1.04166e-06 0)
(0.091469 1.03723e-06 0)
(0.0914147 1.02246e-06 0)
(0.0913604 1.02248e-06 0)
(0.0913065 1.01274e-06 0)
(0.0912522 1.01888e-06 0)
(0.0911987 1.00145e-06 0)
(0.0911443 1.03922e-06 0)
(0.0910911 1.00708e-06 0)
(0.0910364 1.05088e-06 0)
(0.0909839 9.93334e-07 0)
(0.0909286 1.08007e-06 0)
(0.0908768 1.00064e-06 0)
(0.0908203 1.13499e-06 0)
(0.0907697 9.80785e-07 0)
(0.0907114 1.191e-06 0)
(0.0906627 9.58105e-07 0)
(0.0906017 1.28076e-06 0)
(0.0905561 8.83519e-07 0)
(0.0904908 1.38962e-06 0)
(0.0904493 8.05585e-07 0)
(0.0903782 1.60101e-06 0)
(0.0903413 6.68375e-07 0)
(0.0902638 1.86567e-06 0)
(0.090229 5.00153e-07 0)
(0.0901476 2.18399e-06 0)
(0.0901164 1.69765e-07 0)
(0.0900196 2.60133e-06 0)
(0.0900304 -1.53652e-06 0)
(0.0898346 9.98364e-06 0)
(0.971306 0.0731486 0)
(0.83259 0.0463967 0)
(0.671413 0.0180089 0)
(0.562238 0.00770769 0)
(0.499333 0.00400573 0)
(0.458865 0.00249286 0)
(0.430567 0.00167233 0)
(0.409984 0.001218 0)
(0.393934 0.000939074 0)
(0.38119 0.000775841 0)
(0.370331 0.000648776 0)
(0.361509 0.000548315 0)
(0.353689 0.000483623 0)
(0.347071 0.000411215 0)
(0.341272 0.000358742 0)
(0.336211 0.000321886 0)
(0.331587 0.000292907 0)
(0.327471 0.000268833 0)
(0.323663 0.000248755 0)
(0.320224 0.000228185 0)
(0.317029 0.000213995 0)
(0.314081 0.000200673 0)
(0.311331 0.000189031 0)
(0.308759 0.000177097 0)
(0.306378 0.000166371 0)
(0.304124 0.000159334 0)
(0.302 0.000151098 0)
(0.299989 0.000144936 0)
(0.29808 0.000137857 0)
(0.296272 0.000132276 0)
(0.294552 0.000126357 0)
(0.292908 0.000122137 0)
(0.291334 0.000117125 0)
(0.289835 0.000112733 0)
(0.288394 0.000109053 0)
(0.28701 0.000105218 0)
(0.285682 0.00010106 0)
(0.284409 9.8218e-05 0)
(0.283174 9.49366e-05 0)
(0.281994 9.18663e-05 0)
(0.280845 8.94665e-05 0)
(0.279741 8.64186e-05 0)
(0.278669 8.42833e-05 0)
(0.277635 8.13947e-05 0)
(0.276633 7.94117e-05 0)
(0.275663 7.7202e-05 0)
(0.274718 7.54119e-05 0)
(0.273804 7.30981e-05 0)
(0.272914 7.15688e-05 0)
(0.272051 6.93999e-05 0)
(0.271211 6.78107e-05 0)
(0.270395 6.61106e-05 0)
(0.269599 6.46906e-05 0)
(0.268824 6.29943e-05 0)
(0.26807 6.1575e-05 0)
(0.267334 6.00822e-05 0)
(0.266618 5.87256e-05 0)
(0.265919 5.75286e-05 0)
(0.265236 5.61399e-05 0)
(0.26457 5.49947e-05 0)
(0.263918 5.37335e-05 0)
(0.263283 5.26557e-05 0)
(0.262661 5.15207e-05 0)
(0.262054 5.04167e-05 0)
(0.261459 4.95241e-05 0)
(0.260878 4.84122e-05 0)
(0.260309 4.75275e-05 0)
(0.259752 4.64662e-05 0)
(0.259207 4.56483e-05 0)
(0.258673 4.46884e-05 0)
(0.258151 4.3872e-05 0)
(0.257638 4.30307e-05 0)
(0.257136 4.22831e-05 0)
(0.256644 4.14427e-05 0)
(0.256161 4.07073e-05 0)
(0.255687 3.9939e-05 0)
(0.255223 3.92221e-05 0)
(0.254768 3.85067e-05 0)
(0.254321 3.77905e-05 0)
(0.253882 3.71905e-05 0)
(0.253452 3.64985e-05 0)
(0.253029 3.59085e-05 0)
(0.252614 3.52457e-05 0)
(0.252206 3.46882e-05 0)
(0.251805 3.40616e-05 0)
(0.251412 3.35078e-05 0)
(0.251025 3.29432e-05 0)
(0.250646 3.23844e-05 0)
(0.250272 3.18911e-05 0)
(0.249905 3.13454e-05 0)
(0.249544 3.08668e-05 0)
(0.249189 3.03472e-05 0)
(0.24884 2.98846e-05 0)
(0.248496 2.93958e-05 0)
(0.248159 2.89338e-05 0)
(0.247826 2.84878e-05 0)
(0.247499 2.80251e-05 0)
(0.247177 2.76311e-05 0)
(0.246861 2.718e-05 0)
(0.246549 2.67988e-05 0)
(0.246242 2.63613e-05 0)
(0.24594 2.59955e-05 0)
(0.245642 2.5574e-05 0)
(0.245349 2.52233e-05 0)
(0.24506 2.48265e-05 0)
(0.244777 2.44738e-05 0)
(0.244496 2.41173e-05 0)
(0.244221 2.37537e-05 0)
(0.243949 2.34427e-05 0)
(0.243682 2.30757e-05 0)
(0.243418 2.27783e-05 0)
(0.243158 2.24219e-05 0)
(0.242901 2.21383e-05 0)
(0.242649 2.17885e-05 0)
(0.2424 2.15209e-05 0)
(0.242155 2.11851e-05 0)
(0.241913 2.09187e-05 0)
(0.241675 2.06058e-05 0)
(0.241439 2.03406e-05 0)
(0.241208 2.00533e-05 0)
(0.240979 1.97973e-05 0)
(0.240754 1.95125e-05 0)
(0.240531 1.92669e-05 0)
(0.240312 1.89904e-05 0)
(0.240096 1.87535e-05 0)
(0.239882 1.84866e-05 0)
(0.239672 1.8257e-05 0)
(0.239464 1.80079e-05 0)
(0.239259 1.77747e-05 0)
(0.239056 1.75456e-05 0)
(0.238857 1.731e-05 0)
(0.23866 1.7103e-05 0)
(0.238466 1.68663e-05 0)
(0.238273 1.66663e-05 0)
(0.238084 1.64371e-05 0)
(0.237897 1.62495e-05 0)
(0.237713 1.60228e-05 0)
(0.23753 1.5842e-05 0)
(0.23735 1.56261e-05 0)
(0.237172 1.54543e-05 0)
(0.236997 1.52464e-05 0)
(0.236823 1.50753e-05 0)
(0.236652 1.48824e-05 0)
(0.236483 1.47152e-05 0)
(0.236316 1.45302e-05 0)
(0.23615 1.43674e-05 0)
(0.235987 1.4189e-05 0)
(0.235826 1.40363e-05 0)
(0.235667 1.38567e-05 0)
(0.235509 1.37068e-05 0)
(0.235354 1.3534e-05 0)
(0.2352 1.33888e-05 0)
(0.235048 1.32153e-05 0)
(0.234898 1.30736e-05 0)
(0.23475 1.29125e-05 0)
(0.234604 1.2771e-05 0)
(0.234459 1.26144e-05 0)
(0.234316 1.2473e-05 0)
(0.234174 1.23293e-05 0)
(0.234034 1.21965e-05 0)
(0.233896 1.20627e-05 0)
(0.233758 1.19403e-05 0)
(0.233623 1.18101e-05 0)
(0.233488 1.16953e-05 0)
(0.233355 1.15863e-05 0)
(0.233222 1.14912e-05 0)
(0.233091 1.139e-05 0)
(0.23296 1.1314e-05 0)
(0.232831 1.12379e-05 0)
(0.232702 1.11883e-05 0)
(0.232574 1.11146e-05 0)
(0.232446 1.1076e-05 0)
(0.232319 1.10079e-05 0)
(0.232192 1.09885e-05 0)
(0.232066 1.09541e-05 0)
(0.231939 1.09374e-05 0)
(0.231815 1.08952e-05 0)
(0.231688 1.0958e-05 0)
(0.231565 1.08759e-05 0)
(0.231438 1.09431e-05 0)
(0.231316 1.08183e-05 0)
(0.231188 1.09892e-05 0)
(0.231069 1.08296e-05 0)
(0.230938 1.10932e-05 0)
(0.230822 1.0767e-05 0)
(0.230689 1.11925e-05 0)
(0.230577 1.07035e-05 0)
(0.230438 1.13886e-05 0)
(0.230334 1.05298e-05 0)
(0.230187 1.16741e-05 0)
(0.230092 1.03627e-05 0)
(0.229932 1.23113e-05 0)
(0.229848 1.00152e-05 0)
(0.229676 1.32936e-05 0)
(0.229596 9.62942e-06 0)
(0.229417 1.42154e-05 0)
(0.229342 9.40386e-06 0)
(0.229137 1.49396e-05 0)
(0.22912 6.27416e-06 0)
(0.228781 3.76641e-05 0)
(1.00819 0.065317 0)
(0.99085 0.0518136 0)
(0.92709 0.0301997 0)
(0.83099 0.0178221 0)
(0.755582 0.0112165 0)
(0.697512 0.00756677 0)
(0.652392 0.00535921 0)
(0.617043 0.00401814 0)
(0.588723 0.00314411 0)
(0.56566 0.00257539 0)
(0.546411 0.00214619 0)
(0.530289 0.00181149 0)
(0.516451 0.00157274 0)
(0.504542 0.00135293 0)
(0.494125 0.00118364 0)
(0.484975 0.00105631 0)
(0.476743 0.000952409 0)
(0.469421 0.00086481 0)
(0.462745 0.000791941 0)
(0.456715 0.000723883 0)
(0.451173 0.000671034 0)
(0.446094 0.000623004 0)
(0.441396 0.000581763 0)
(0.437035 0.000541907 0)
(0.433007 0.000506583 0)
(0.429227 0.000479633 0)
(0.42569 0.000452237 0)
(0.422364 0.000429666 0)
(0.41923 0.000406595 0)
(0.41628 0.000387129 0)
(0.413481 0.0003684 0)
(0.410829 0.000352939 0)
(0.408304 0.000336901 0)
(0.40591 0.000322524 0)
(0.403621 0.000309968 0)
(0.401437 0.000297711 0)
(0.399346 0.0002853 0)
(0.39735 0.000275492 0)
(0.395426 0.000265259 0)
(0.393591 0.000255705 0)
(0.391816 0.000247686 0)
(0.390115 0.000238807 0)
(0.388471 0.000231637 0)
(0.386889 0.000223478 0)
(0.385362 0.000216954 0)
(0.383888 0.000210403 0)
(0.382459 0.000204611 0)
(0.38108 0.000198146 0)
(0.379741 0.000193084 0)
(0.378446 0.000187121 0)
(0.37719 0.000182185 0)
(0.375973 0.000177276 0)
(0.374788 0.000172916 0)
(0.373639 0.000168156 0)
(0.372522 0.000163969 0)
(0.371435 0.000159747 0)
(0.37038 0.000155806 0)
(0.369351 0.000152243 0)
(0.368349 0.000148429 0)
(0.367373 0.000145078 0)
(0.366421 0.000141588 0)
(0.365494 0.000138471 0)
(0.364588 0.000135305 0)
(0.363706 0.000132242 0)
(0.362843 0.000129587 0)
(0.362001 0.000126625 0)
(0.361177 0.000124064 0)
(0.360373 0.000121256 0)
(0.359587 0.000118878 0)
(0.358819 0.000116318 0)
(0.358067 0.000114011 0)
(0.357331 0.000111716 0)
(0.356611 0.000109616 0)
(0.355906 0.00010738 0)
(0.355216 0.000105343 0)
(0.354539 0.000103279 0)
(0.353877 0.000101324 0)
(0.353227 9.93953e-05 0)
(0.352591 9.74854e-05 0)
(0.351968 9.57955e-05 0)
(0.351356 9.39882e-05 0)
(0.350756 9.23606e-05 0)
(0.350167 9.06294e-05 0)
(0.34959 8.90919e-05 0)
(0.349022 8.74563e-05 0)
(0.348466 8.59568e-05 0)
(0.34792 8.44599e-05 0)
(0.347384 8.29827e-05 0)
(0.346857 8.16372e-05 0)
(0.34634 8.02208e-05 0)
(0.345831 7.89267e-05 0)
(0.345332 7.75759e-05 0)
(0.344841 7.63347e-05 0)
(0.344358 7.50596e-05 0)
(0.343884 7.38421e-05 0)
(0.343418 7.26606e-05 0)
(0.34296 7.14643e-05 0)
(0.342509 7.03907e-05 0)
(0.342065 6.92432e-05 0)
(0.341629 6.82137e-05 0)
(0.3412 6.71025e-05 0)
(0.340777 6.6116e-05 0)
(0.340362 6.5046e-05 0)
(0.339953 6.41036e-05 0)
(0.33955 6.30912e-05 0)
(0.339154 6.21627e-05 0)
(0.338764 6.12336e-05 0)
(0.33838 6.03014e-05 0)
(0.338001 5.94637e-05 0)
(0.337629 5.85461e-05 0)
(0.337262 5.77413e-05 0)
(0.336901 5.68527e-05 0)
(0.336544 5.60844e-05 0)
(0.336194 5.52196e-05 0)
(0.335848 5.44905e-05 0)
(0.335508 5.36597e-05 0)
(0.335172 5.2943e-05 0)
(0.334841 5.21633e-05 0)
(0.334515 5.1459e-05 0)
(0.334194 5.07315e-05 0)
(0.333877 5.00581e-05 0)
(0.333565 4.93425e-05 0)
(0.333257 4.8695e-05 0)
(0.332954 4.80011e-05 0)
(0.332654 4.73788e-05 0)
(0.332359 4.67104e-05 0)
(0.332068 4.61086e-05 0)
(0.331781 4.54768e-05 0)
(0.331498 4.48781e-05 0)
(0.331218 4.42887e-05 0)
(0.330943 4.36944e-05 0)
(0.330671 4.31491e-05 0)
(0.330402 4.25644e-05 0)
(0.330137 4.20383e-05 0)
(0.329876 4.1472e-05 0)
(0.329618 4.09728e-05 0)
(0.329364 4.04187e-05 0)
(0.329112 3.99398e-05 0)
(0.328864 3.94091e-05 0)
(0.328619 3.89502e-05 0)
(0.328377 3.84407e-05 0)
(0.328138 3.799e-05 0)
(0.327903 3.75105e-05 0)
(0.32767 3.70704e-05 0)
(0.32744 3.66107e-05 0)
(0.327212 3.61856e-05 0)
(0.326988 3.57381e-05 0)
(0.326766 3.53303e-05 0)
(0.326547 3.48859e-05 0)
(0.326331 3.44882e-05 0)
(0.326117 3.40566e-05 0)
(0.325906 3.36701e-05 0)
(0.325698 3.32454e-05 0)
(0.325492 3.28725e-05 0)
(0.325289 3.24724e-05 0)
(0.325087 3.2105e-05 0)
(0.324889 3.17236e-05 0)
(0.324692 3.13691e-05 0)
(0.324498 3.10202e-05 0)
(0.324306 3.06922e-05 0)
(0.324116 3.03716e-05 0)
(0.323927 3.00744e-05 0)
(0.323741 2.9773e-05 0)
(0.323555 2.95024e-05 0)
(0.323372 2.92485e-05 0)
(0.32319 2.90227e-05 0)
(0.32301 2.87994e-05 0)
(0.322829 2.86159e-05 0)
(0.322651 2.84407e-05 0)
(0.322473 2.83103e-05 0)
(0.322297 2.81475e-05 0)
(0.322121 2.80399e-05 0)
(0.321946 2.7892e-05 0)
(0.321771 2.78169e-05 0)
(0.321599 2.77333e-05 0)
(0.321424 2.76446e-05 0)
(0.321254 2.7568e-05 0)
(0.32108 2.75858e-05 0)
(0.320911 2.74532e-05 0)
(0.320738 2.74571e-05 0)
(0.320572 2.7291e-05 0)
(0.320398 2.74287e-05 0)
(0.320235 2.72435e-05 0)
(0.320059 2.7467e-05 0)
(0.319902 2.7089e-05 0)
(0.319722 2.74999e-05 0)
(0.319571 2.69512e-05 0)
(0.319385 2.76749e-05 0)
(0.319244 2.66785e-05 0)
(0.319049 2.80267e-05 0)
(0.318919 2.64466e-05 0)
(0.318711 2.89673e-05 0)
(0.318593 2.59359e-05 0)
(0.318372 3.06326e-05 0)
(0.318261 2.53938e-05 0)
(0.31803 3.21846e-05 0)
(0.317925 2.56377e-05 0)
(0.317667 3.30451e-05 0)
(0.317616 2.18601e-05 0)
(0.317234 6.78091e-05 0)
(1.0114 0.0502385 0)
(1.03997 0.048747 0)
(1.02553 0.0348177 0)
(0.984216 0.0254169 0)
(0.930307 0.0186104 0)
(0.877829 0.0138912 0)
(0.829976 0.0105624 0)
(0.787811 0.0082809 0)
(0.75155 0.00664231 0)
(0.720524 0.00547696 0)
(0.694093 0.00458168 0)
(0.671338 0.00388178 0)
(0.651694 0.00335522 0)
(0.634555 0.00290212 0)
(0.619477 0.00254321 0)
(0.606143 0.00226163 0)
(0.594222 0.0020281 0)
(0.583583 0.00183161 0)
(0.573943 0.00166744 0)
(0.565225 0.0015195 0)
(0.557257 0.00139925 0)
(0.549974 0.00129181 0)
(0.543266 0.00119972 0)
(0.537064 0.00111346 0)
(0.531339 0.00103751 0)
(0.525992 0.00097616 0)
(0.521009 0.000916688 0)
(0.516342 0.000866205 0)
(0.51196 0.000816684 0)
(0.507849 0.000774117 0)
(0.503962 0.000734458 0)
(0.500292 0.00070005 0)
(0.496813 0.000666064 0)
(0.49352 0.000635438 0)
(0.490385 0.000608168 0)
(0.487405 0.000582396 0)
(0.484556 0.000557052 0)
(0.481845 0.00053573 0)
(0.479241 0.000514444 0)
(0.476763 0.000494617 0)
(0.474374 0.000477514 0)
(0.472089 0.000459559 0)
(0.469888 0.000444308 0)
(0.467774 0.00042812 0)
(0.465738 0.000414411 0)
(0.463777 0.000401058 0)
(0.461881 0.000388948 0)
(0.460055 0.000376195 0)
(0.458287 0.000365552 0)
(0.45658 0.000353907 0)
(0.454927 0.000343824 0)
(0.453328 0.00033403 0)
(0.451776 0.000325112 0)
(0.450272 0.000315784 0)
(0.448813 0.00030741 0)
(0.447396 0.000299112 0)
(0.446021 0.000291281 0)
(0.444684 0.00028413 0)
(0.443384 0.000276745 0)
(0.44212 0.000270089 0)
(0.440888 0.000263323 0)
(0.43969 0.000257161 0)
(0.438521 0.000251014 0)
(0.437384 0.000245074 0)
(0.436273 0.000239776 0)
(0.435191 0.000234144 0)
(0.434134 0.000229111 0)
(0.433103 0.000223799 0)
(0.432097 0.000219121 0)
(0.431113 0.000214265 0)
(0.430152 0.000209786 0)
(0.429214 0.00020539 0)
(0.428295 0.00020132 0)
(0.427397 0.000197094 0)
(0.426519 0.000193181 0)
(0.425658 0.00018927 0)
(0.424817 0.000185542 0)
(0.423993 0.000181888 0)
(0.423187 0.000178285 0)
(0.422396 0.000175022 0)
(0.421622 0.000171646 0)
(0.420863 0.000168536 0)
(0.420119 0.000165308 0)
(0.41939 0.000162373 0)
(0.418674 0.000159328 0)
(0.417973 0.000156491 0)
(0.417284 0.000153687 0)
(0.416609 0.000150924 0)
(0.415946 0.000148372 0)
(0.415296 0.000145746 0)
(0.414657 0.000143305 0)
(0.41403 0.000140802 0)
(0.413414 0.000138469 0)
(0.412808 0.000136105 0)
(0.412214 0.000133837 0)
(0.411629 0.000131634 0)
(0.411056 0.000129425 0)
(0.410491 0.000127399 0)
(0.409937 0.000125297 0)
(0.409391 0.000123364 0)
(0.408855 0.000121333 0)
(0.408327 0.000119482 0)
(0.407808 0.00011753 0)
(0.407298 0.000115766 0)
(0.406796 0.000113916 0)
(0.406302 0.000112193 0)
(0.405816 0.00011048 0)
(0.405337 0.000108772 0)
(0.404866 0.000107205 0)
(0.404403 0.000105544 0)
(0.403946 0.000104038 0)
(0.403497 0.000102433 0)
(0.403054 0.000100995 0)
(0.402619 9.94397e-05 0)
(0.402189 9.80723e-05 0)
(0.401766 9.6579e-05 0)
(0.40135 9.52433e-05 0)
(0.40094 9.38369e-05 0)
(0.400535 9.25326e-05 0)
(0.400137 9.12116e-05 0)
(0.399744 8.99684e-05 0)
(0.399357 8.86749e-05 0)
(0.398976 8.74799e-05 0)
(0.3986 8.62279e-05 0)
(0.398229 8.5081e-05 0)
(0.397864 8.38761e-05 0)
(0.397504 8.27686e-05 0)
(0.397148 8.16241e-05 0)
(0.396798 8.05327e-05 0)
(0.396453 7.94583e-05 0)
(0.396112 7.83838e-05 0)
(0.395776 7.73797e-05 0)
(0.395445 7.63324e-05 0)
(0.395117 7.53651e-05 0)
(0.394795 7.43513e-05 0)
(0.394476 7.34297e-05 0)
(0.394162 7.24434e-05 0)
(0.393852 7.15602e-05 0)
(0.393546 7.06135e-05 0)
(0.393244 6.97648e-05 0)
(0.392946 6.88567e-05 0)
(0.392651 6.80277e-05 0)
(0.392361 6.71672e-05 0)
(0.392073 6.63587e-05 0)
(0.39179 6.55333e-05 0)
(0.39151 6.47539e-05 0)
(0.391234 6.39473e-05 0)
(0.390961 6.31939e-05 0)
(0.390692 6.23984e-05 0)
(0.390425 6.16651e-05 0)
(0.390163 6.08902e-05 0)
(0.389903 6.01782e-05 0)
(0.389647 5.94237e-05 0)
(0.389394 5.87401e-05 0)
(0.389144 5.80264e-05 0)
(0.388897 5.73596e-05 0)
(0.388653 5.66871e-05 0)
(0.388411 5.60543e-05 0)
(0.388173 5.54401e-05 0)
(0.387936 5.48592e-05 0)
(0.387703 5.43003e-05 0)
(0.387471 5.37792e-05 0)
(0.387242 5.32622e-05 0)
(0.387014 5.27931e-05 0)
(0.386789 5.23562e-05 0)
(0.386564 5.19629e-05 0)
(0.386342 5.15848e-05 0)
(0.386121 5.12584e-05 0)
(0.385902 5.09551e-05 0)
(0.385683 5.07095e-05 0)
(0.385467 5.04281e-05 0)
(0.38525 5.02148e-05 0)
(0.385036 4.99595e-05 0)
(0.384821 4.97868e-05 0)
(0.38461 4.96192e-05 0)
(0.384397 4.94095e-05 0)
(0.384188 4.92691e-05 0)
(0.383976 4.91753e-05 0)
(0.38377 4.89708e-05 0)
(0.383559 4.88362e-05 0)
(0.383357 4.86191e-05 0)
(0.383146 4.86242e-05 0)
(0.382949 4.84156e-05 0)
(0.382737 4.84738e-05 0)
(0.382546 4.80879e-05 0)
(0.38233 4.83266e-05 0)
(0.382148 4.78025e-05 0)
(0.381927 4.8359e-05 0)
(0.381755 4.73809e-05 0)
(0.381524 4.86637e-05 0)
(0.381365 4.70424e-05 0)
(0.381122 4.97778e-05 0)
(0.380977 4.63674e-05 0)
(0.38072 5.19388e-05 0)
(0.380586 4.57115e-05 0)
(0.380316 5.41731e-05 0)
(0.380188 4.64734e-05 0)
(0.379894 5.50085e-05 0)
(0.379813 4.27133e-05 0)
(0.379406 9.85012e-05 0)
(1.00996 0.0450828 0)
(1.05306 0.0485502 0)
(1.05269 0.0361582 0)
(1.04254 0.0289504 0)
(1.01961 0.0233619 0)
(0.988618 0.0190724 0)
(0.954425 0.0156869 0)
(0.918987 0.0130654 0)
(0.884527 0.0109461 0)
(0.851967 0.00927056 0)
(0.822301 0.00788772 0)
(0.79548 0.0067615 0)
(0.77152 0.0058686 0)
(0.750128 0.00511014 0)
(0.731022 0.00449686 0)
(0.713893 0.00400121 0)
(0.698522 0.00358228 0)
(0.684703 0.00322958 0)
(0.672167 0.00293346 0)
(0.660781 0.00266916 0)
(0.650396 0.00244935 0)
(0.640885 0.00225505 0)
(0.632136 0.0020874 0)
(0.624055 0.00193334 0)
(0.616589 0.00179779 0)
(0.609636 0.00168456 0)
(0.603168 0.00157736 0)
(0.597122 0.00148512 0)
(0.591458 0.00139653 0)
(0.586153 0.0013198 0)
(0.581148 0.00124924 0)
(0.576432 0.00118649 0)
(0.571974 0.00112618 0)
(0.56776 0.00107173 0)
(0.563758 0.00102266 0)
(0.559963 0.000977121 0)
(0.55634 0.000933146 0)
(0.552899 0.000894842 0)
(0.549603 0.000857502 0)
(0.546469 0.000822817 0)
(0.543456 0.000792417 0)
(0.540578 0.000761397 0)
(0.537813 0.000734407 0)
(0.535161 0.000706857 0)
(0.532609 0.000682757 0)
(0.530157 0.000659575 0)
(0.527792 0.000638363 0)
(0.525515 0.000616725 0)
(0.523317 0.000598032 0)
(0.521195 0.00057841 0)
(0.519146 0.000561031 0)
(0.517164 0.000544312 0)
(0.515245 0.00052889 0)
(0.513388 0.00051319 0)
(0.511588 0.000498916 0)
(0.509843 0.000484919 0)
(0.508151 0.000471631 0)
(0.506508 0.000459427 0)
(0.504913 0.000447094 0)
(0.503363 0.00043582 0)
(0.501854 0.000424522 0)
(0.500389 0.000414112 0)
(0.498961 0.000403851 0)
(0.497573 0.000393935 0)
(0.496219 0.000384946 0)
(0.494901 0.00037566 0)
(0.493616 0.00036721 0)
(0.492362 0.000358489 0)
(0.49114 0.000350639 0)
(0.489947 0.000342654 0)
(0.488782 0.000335199 0)
(0.487645 0.000327933 0)
(0.486534 0.000321158 0)
(0.485447 0.000314236 0)
(0.484386 0.00030777 0)
(0.483347 0.000301358 0)
(0.482333 0.000295224 0)
(0.481339 0.000289244 0)
(0.480368 0.000283357 0)
(0.479416 0.000277957 0)
(0.478485 0.000272474 0)
(0.477573 0.000267359 0)
(0.476679 0.000262128 0)
(0.475803 0.000257306 0)
(0.474945 0.000252379 0)
(0.474104 0.000247748 0)
(0.473279 0.000243196 0)
(0.47247 0.000238719 0)
(0.471677 0.000234546 0)
(0.470899 0.000230311 0)
(0.470135 0.000226334 0)
(0.469385 0.000222304 0)
(0.468649 0.000218515 0)
(0.467926 0.000214707 0)
(0.467217 0.000211045 0)
(0.46652 0.000207489 0)
(0.465836 0.000203941 0)
(0.465164 0.000200646 0)
(0.464503 0.000197287 0)
(0.463854 0.000194155 0)
(0.463216 0.000190915 0)
(0.462588 0.000187921 0)
(0.461971 0.000184814 0)
(0.461365 0.000181961 0)
(0.460768 0.000179015 0)
(0.460182 0.000176246 0)
(0.459604 0.000173503 0)
(0.459037 0.000170781 0)
(0.458478 0.000168251 0)
(0.457929 0.00016562 0)
(0.457387 0.000163191 0)
(0.456855 0.000160654 0)
(0.456331 0.000158335 0)
(0.455815 0.000155886 0)
(0.455306 0.000153678 0)
(0.454806 0.000151327 0)
(0.454313 0.00014918 0)
(0.453828 0.000146961 0)
(0.45335 0.000144873 0)
(0.452879 0.000142781 0)
(0.452415 0.000140793 0)
(0.451958 0.000138751 0)
(0.451507 0.000136843 0)
(0.451064 0.00013487 0)
(0.450626 0.000133039 0)
(0.450195 0.000131142 0)
(0.44977 0.000129376 0)
(0.449351 0.00012757 0)
(0.448938 0.00012584 0)
(0.44853 0.000124137 0)
(0.448129 0.000122443 0)
(0.447733 0.000120843 0)
(0.447343 0.0001192 0)
(0.446957 0.00011766 0)
(0.446577 0.000116071 0)
(0.446202 0.000114601 0)
(0.445833 0.000113061 0)
(0.445467 0.000111652 0)
(0.445107 0.000110172 0)
(0.444752 0.000108818 0)
(0.444401 0.000107398 0)
(0.444055 0.000106078 0)
(0.443713 0.000104728 0)
(0.443376 0.000103442 0)
(0.443043 0.000102145 0)
(0.442714 0.000100906 0)
(0.44239 9.96372e-05 0)
(0.442069 9.84361e-05 0)
(0.441753 9.71899e-05 0)
(0.441441 9.60221e-05 0)
(0.441133 9.48078e-05 0)
(0.440828 9.36767e-05 0)
(0.440528 9.25018e-05 0)
(0.440231 9.14183e-05 0)
(0.439938 9.03068e-05 0)
(0.439648 8.92589e-05 0)
(0.439362 8.82191e-05 0)
(0.439079 8.72344e-05 0)
(0.438799 8.62862e-05 0)
(0.438522 8.53867e-05 0)
(0.438248 8.4529e-05 0)
(0.437976 8.3726e-05 0)
(0.437708 8.294e-05 0)
(0.43744 8.22209e-05 0)
(0.437176 8.15523e-05 0)
(0.436914 8.09441e-05 0)
(0.436654 8.03667e-05 0)
(0.436394 7.98519e-05 0)
(0.436138 7.93783e-05 0)
(0.435882 7.89705e-05 0)
(0.435629 7.85276e-05 0)
(0.435375 7.8159e-05 0)
(0.435125 7.7753e-05 0)
(0.434875 7.74258e-05 0)
(0.434628 7.71236e-05 0)
(0.43438 7.67323e-05 0)
(0.434137 7.64779e-05 0)
(0.433891 7.61985e-05 0)
(0.433652 7.58783e-05 0)
(0.433408 7.55246e-05 0)
(0.433174 7.52175e-05 0)
(0.432931 7.4992e-05 0)
(0.432703 7.4728e-05 0)
(0.43246 7.45117e-05 0)
(0.432239 7.41124e-05 0)
(0.431993 7.40528e-05 0)
(0.431782 7.35696e-05 0)
(0.431531 7.38094e-05 0)
(0.431332 7.29053e-05 0)
(0.431073 7.39419e-05 0)
(0.430888 7.23735e-05 0)
(0.430617 7.50959e-05 0)
(0.430446 7.14894e-05 0)
(0.430161 7.75674e-05 0)
(0.430005 7.07311e-05 0)
(0.429705 8.04701e-05 0)
(0.429558 7.19492e-05 0)
(0.429233 8.13162e-05 0)
(0.429129 6.87098e-05 0)
(0.428698 0.000131088 0)
(1.00868 0.0410964 0)
(1.05097 0.0471189 0)
(1.05922 0.0351973 0)
(1.05737 0.0295426 0)
(1.05143 0.0253023 0)
(1.03898 0.0217761 0)
(1.02199 0.0190027 0)
(1.00102 0.0167637 0)
(0.977519 0.0147762 0)
(0.952113 0.0130535 0)
(0.926172 0.0114841 0)
(0.90054 0.0101012 0)
(0.875979 0.00891832 0)
(0.852918 0.0078697 0)
(0.831586 0.00698793 0)
(0.811919 0.00624969 0)
(0.79392 0.00561026 0)
(0.777491 0.005066 0)
(0.762444 0.00460398 0)
(0.748649 0.00419138 0)
(0.736018 0.00384163 0)
(0.724387 0.00353355 0)
(0.713666 0.00326607 0)
(0.703737 0.00302221 0)
(0.694553 0.00280689 0)
(0.686002 0.00262378 0)
(0.678043 0.00245263 0)
(0.670604 0.00230381 0)
(0.663642 0.00216271 0)
(0.65712 0.00203985 0)
(0.650975 0.00192734 0)
(0.645192 0.00182611 0)
(0.63973 0.00173035 0)
(0.634571 0.00164369 0)
(0.62968 0.00156504 0)
(0.625046 0.00149283 0)
(0.620629 0.00142386 0)
(0.616436 0.00136253 0)
(0.612429 0.00130359 0)
(0.608619 0.00124895 0)
(0.604965 0.00120051 0)
(0.601477 0.00115195 0)
(0.598132 0.00110915 0)
(0.594927 0.00106647 0)
(0.591847 0.00102841 0)
(0.588891 0.000992023 0)
(0.586045 0.000958593 0)
(0.583307 0.000925162 0)
(0.580667 0.000895664 0)
(0.578123 0.000865506 0)
(0.575668 0.000838447 0)
(0.573296 0.000812512 0)
(0.571003 0.000788432 0)
(0.568784 0.000764364 0)
(0.566638 0.000742264 0)
(0.564558 0.000720763 0)
(0.562544 0.000700288 0)
(0.560591 0.00068141 0)
(0.558696 0.000662605 0)
(0.556856 0.000645256 0)
(0.555067 0.000628036 0)
(0.553332 0.000612051 0)
(0.551642 0.000596418 0)
(0.55 0.000581312 0)
(0.548401 0.000567488 0)
(0.546845 0.000553459 0)
(0.545329 0.000540546 0)
(0.543852 0.000527423 0)
(0.542412 0.000515446 0)
(0.541007 0.000503417 0)
(0.539638 0.000492106 0)
(0.538302 0.000481127 0)
(0.536997 0.000470843 0)
(0.535722 0.000460452 0)
(0.534478 0.000450692 0)
(0.533261 0.000441065 0)
(0.532072 0.000431838 0)
(0.53091 0.000422875 0)
(0.529773 0.000414063 0)
(0.528661 0.000405911 0)
(0.527573 0.000397736 0)
(0.526508 0.000390047 0)
(0.525465 0.000382263 0)
(0.524444 0.000375024 0)
(0.523443 0.000367706 0)
(0.522464 0.000360786 0)
(0.521503 0.00035401 0)
(0.520562 0.000347353 0)
(0.519639 0.000341114 0)
(0.518734 0.000334838 0)
(0.517846 0.000328909 0)
(0.516975 0.000322946 0)
(0.516121 0.000317308 0)
(0.515282 0.000311676 0)
(0.514459 0.000306251 0)
(0.513651 0.000300985 0)
(0.512858 0.000295748 0)
(0.512079 0.000290844 0)
(0.511314 0.000285905 0)
(0.510562 0.000281257 0)
(0.509824 0.0002765 0)
(0.509098 0.000272061 0)
(0.508385 0.000267508 0)
(0.507684 0.000263284 0)
(0.506994 0.000258966 0)
(0.506317 0.000254881 0)
(0.50565 0.000250847 0)
(0.504995 0.000246855 0)
(0.50435 0.000243115 0)
(0.503716 0.000239273 0)
(0.503091 0.000235685 0)
(0.502478 0.000231989 0)
(0.501873 0.000228565 0)
(0.501279 0.000225003 0)
(0.500693 0.000221742 0)
(0.500117 0.000218326 0)
(0.499549 0.000215164 0)
(0.498991 0.000211935 0)
(0.498441 0.000208869 0)
(0.497899 0.000205818 0)
(0.497365 0.000202901 0)
(0.49684 0.000199931 0)
(0.496322 0.000197134 0)
(0.495812 0.000194269 0)
(0.495309 0.000191586 0)
(0.494814 0.000188832 0)
(0.494326 0.000186247 0)
(0.493844 0.000183622 0)
(0.493371 0.000181099 0)
(0.492903 0.000178618 0)
(0.492442 0.000176157 0)
(0.491988 0.000173816 0)
(0.49154 0.000171437 0)
(0.491098 0.000169187 0)
(0.490662 0.000166889 0)
(0.490233 0.000164738 0)
(0.489809 0.000162514 0)
(0.489391 0.000160454 0)
(0.488978 0.000158316 0)
(0.488571 0.000156333 0)
(0.48817 0.000154283 0)
(0.487773 0.000152354 0)
(0.487382 0.000150398 0)
(0.486996 0.000148521 0)
(0.486615 0.000146641 0)
(0.486239 0.000144832 0)
(0.485868 0.000142993 0)
(0.485502 0.000141238 0)
(0.48514 0.000139437 0)
(0.484783 0.000137732 0)
(0.484431 0.000135978 0)
(0.484083 0.000134332 0)
(0.48374 0.000132642 0)
(0.483401 0.000131066 0)
(0.483066 0.00012947 0)
(0.482736 0.000127957 0)
(0.482409 0.00012647 0)
(0.482085 0.000125057 0)
(0.481766 0.000123701 0)
(0.48145 0.000122414 0)
(0.481137 0.000121191 0)
(0.480827 0.000120042 0)
(0.48052 0.000118928 0)
(0.480216 0.0001179 0)
(0.479914 0.000116942 0)
(0.479615 0.000116063 0)
(0.479318 0.000115231 0)
(0.479023 0.000114473 0)
(0.478731 0.000113775 0)
(0.47844 0.000113146 0)
(0.478152 0.000112486 0)
(0.477864 0.000111901 0)
(0.47758 0.000111286 0)
(0.477296 0.000110736 0)
(0.477016 0.000110235 0)
(0.476736 0.000109592 0)
(0.476461 0.000109157 0)
(0.476184 0.000108613 0)
(0.475914 0.000108115 0)
(0.475639 0.000107458 0)
(0.475376 0.000107 0)
(0.475103 0.000106449 0)
(0.474847 0.000106072 0)
(0.474575 0.000105484 0)
(0.474327 0.000105031 0)