/*--------------------------------*- C++ -*----------------------------------*\
  =========                 |
  \\      /  F ield         | OpenFOAM: The Open Source CFD Toolbox
   \\    /   O peration     | Website:  https://openfoam.org
    \\  /    A nd           | Version:  12
     \\/     M anipulation  |
\*---------------------------------------------------------------------------*/
FoamFile
{
    format      ascii;
    class       volScalarField;
    location    "700";
    object      epsilon;
}
// * * * * * * * * * * * * * * * * * * * * * * * * * * * * * * * * * * * * * //

dimensions      [0 2 -3 0 0 0 0];

internalField   nonuniform List<scalar> 
20000
(
0.0755144
0.0283661
0.0314209
0.0419367
0.0488361
0.0543176
0.0597643
0.0655511
0.0703502
0.0747511
0.0777025
0.0809228
0.0829919
0.0850532
0.0868078
0.0884133
0.0896353
0.0906929
0.0915314
0.0922957
0.0928709
0.0933544
0.093733
0.0940335
0.0942862
0.0944518
0.0945728
0.0946461
0.0946652
0.094655
0.0946235
0.0945562
0.0944618
0.0943527
0.0942206
0.0940755
0.0939237
0.0937588
0.0935779
0.0933962
0.0932014
0.0930048
0.0927997
0.092592
0.0923822
0.0921688
0.0919511
0.0917348
0.0915144
0.0912965
0.0910766
0.090859
0.090638
0.0904193
0.0902021
0.0899857
0.0897699
0.0895555
0.0893429
0.0891318
0.0889222
0.0887144
0.088508
0.0883043
0.088101
0.0879011
0.0877026
0.0875069
0.0873125
0.0871207
0.0869307
0.0867431
0.0865573
0.0863738
0.0861926
0.0860134
0.0858363
0.0856615
0.0854888
0.085318
0.0851497
0.0849832
0.0848189
0.0846565
0.0844962
0.084338
0.0841816
0.0840274
0.083875
0.0837246
0.0835761
0.0834294
0.0832847
0.0831417
0.0830006
0.0828612
0.0827237
0.0825877
0.0824538
0.0823214
0.0821908
0.0820617
0.0819344
0.0818087
0.0816845
0.081562
0.0814408
0.0813215
0.0812033
0.081087
0.0809718
0.0808583
0.0807461
0.0806355
0.080526
0.0804181
0.0803114
0.0802063
0.0801022
0.0799997
0.0798982
0.0797981
0.0796992
0.0796016
0.0795051
0.0794099
0.0793158
0.0792229
0.0791312
0.0790405
0.078951
0.0788625
0.0787753
0.0786889
0.0786038
0.0785195
0.0784365
0.0783543
0.0782732
0.078193
0.0781139
0.0780357
0.0779585
0.0778821
0.0778068
0.0777323
0.0776588
0.0775861
0.0775143
0.0774433
0.0773733
0.077304
0.0772356
0.077168
0.0771013
0.0770354
0.0769701
0.0769058
0.0768421
0.0767793
0.0767172
0.0766559
0.0765953
0.0765355
0.0764764
0.0764182
0.0763605
0.0763037
0.0762475
0.076192
0.0761372
0.0760831
0.0760297
0.075977
0.0759249
0.0758732
0.075822
0.0757712
0.0757212
0.0756714
0.0756226
0.0755735
0.0755258
0.075477
0.0754307
0.0753819
0.0753377
0.0752886
0.0752474
0.0751962
0.0751599
0.0751042
0.0750757
0.0750146
0.0749906
0.0749304
0.0749063
0.0748447
0.0748254
0.0747296
0.0279445
0.0395262
0.0599289
0.0773118
0.0831805
0.0855963
0.087564
0.0899427
0.0913039
0.0923909
0.092271
0.0924406
0.092019
0.0915984
0.0911191
0.0906812
0.0900701
0.089454
0.0887707
0.088132
0.0874426
0.0867652
0.0860845
0.0854099
0.0847645
0.0841115
0.0834742
0.0828497
0.0822282
0.0816246
0.0810396
0.0804633
0.0798968
0.0793483
0.0788087
0.0782839
0.0777746
0.0772785
0.0767885
0.0763167
0.0758516
0.0754006
0.074958
0.0745269
0.0741066
0.0736962
0.0732934
0.072902
0.0725176
0.072144
0.0717779
0.0714216
0.0710709
0.0707288
0.0703949
0.070068
0.069748
0.0694349
0.0691285
0.0688287
0.0685349
0.0682474
0.0679653
0.0676897
0.0674186
0.0671538
0.0668938
0.0666394
0.0663896
0.0661448
0.0659046
0.0656691
0.065438
0.0652111
0.0649887
0.0647702
0.0645558
0.0643453
0.0641387
0.0639357
0.0637366
0.0635408
0.0633485
0.0631595
0.0629738
0.0627914
0.062612
0.0624358
0.0622625
0.0620921
0.0619246
0.0617598
0.0615978
0.0614383
0.0612815
0.0611272
0.0609755
0.060826
0.0606791
0.0605344
0.0603921
0.0602519
0.0601139
0.0599781
0.0598443
0.0597127
0.0595829
0.0594553
0.0593293
0.0592055
0.0590833
0.0589631
0.0588445
0.0587278
0.0586127
0.0584994
0.0583876
0.0582775
0.0581689
0.058062
0.0579565
0.0578525
0.05775
0.057649
0.0575493
0.057451
0.0573542
0.0572586
0.0571644
0.0570714
0.0569797
0.0568893
0.0568001
0.056712
0.0566253
0.0565396
0.0564551
0.0563717
0.0562895
0.0562083
0.0561282
0.0560491
0.0559712
0.0558942
0.0558182
0.0557432
0.0556692
0.0555962
0.0555241
0.0554529
0.0553826
0.0553133
0.0552448
0.0551772
0.0551104
0.0550445
0.0549795
0.0549152
0.0548518
0.0547892
0.0547273
0.0546663
0.0546059
0.0545464
0.0544876
0.0544296
0.0543723
0.0543158
0.05426
0.0542048
0.0541503
0.0540965
0.0540435
0.053991
0.0539393
0.0538879
0.0538373
0.0537868
0.0537375
0.0536878
0.0536399
0.0535908
0.0535442
0.0534954
0.0534503
0.0534014
0.0533584
0.0533089
0.0532687
0.0532175
0.0531813
0.0531266
0.053096
0.0530376
0.0530099
0.0529519
0.0529239
0.0528638
0.0528389
0.0527612
0.00616101
0.0183351
0.0321124
0.0491503
0.06212
0.0722309
0.0795165
0.08505
0.0882696
0.0903025
0.0907659
0.0909219
0.090534
0.0898449
0.0890114
0.088157
0.0871672
0.086144
0.0850829
0.0840659
0.0830374
0.0820353
0.0810542
0.0800998
0.0791884
0.0782972
0.0774353
0.0766054
0.0757971
0.0750207
0.074274
0.0735513
0.0728507
0.0721774
0.0715242
0.0708952
0.0702877
0.0697019
0.0691308
0.0685824
0.0680486
0.067533
0.0670323
0.0665468
0.0660767
0.0656203
0.0651764
0.0647461
0.0643271
0.0639208
0.0635254
0.0631416
0.0627668
0.0624023
0.0620478
0.0617023
0.0613655
0.0610373
0.0607172
0.0604052
0.0601004
0.0598032
0.0595126
0.0592293
0.0589519
0.0586814
0.0584168
0.0581583
0.0579054
0.0576581
0.057416
0.0571792
0.0569474
0.0567204
0.0564983
0.0562806
0.0560673
0.0558585
0.0556538
0.0554531
0.0552565
0.0550636
0.0548744
0.0546889
0.0545068
0.0543283
0.054153
0.053981
0.0538121
0.0536463
0.0534835
0.0533236
0.0531665
0.0530122
0.0528606
0.0527116
0.0525652
0.0524213
0.0522799
0.0521408
0.0520041
0.0518696
0.0517373
0.0516073
0.0514793
0.0513535
0.0512296
0.0511078
0.0509878
0.0508698
0.0507535
0.0506392
0.0505266
0.0504157
0.0503065
0.0501991
0.0500932
0.0499889
0.0498862
0.0497851
0.0496854
0.0495872
0.0494904
0.0493951
0.0493012
0.0492086
0.0491173
0.0490274
0.0489387
0.0488513
0.0487652
0.0486802
0.0485965
0.0485138
0.0484324
0.0483521
0.0482729
0.0481947
0.0481177
0.0480417
0.0479667
0.0478928
0.0478198
0.0477478
0.0476769
0.0476068
0.0475377
0.0474694
0.0474021
0.0473357
0.0472701
0.0472054
0.0471416
0.0470785
0.0470163
0.0469549
0.0468943
0.0468344
0.0467753
0.046717
0.0466594
0.0466026
0.0465464
0.046491
0.0464364
0.0463824
0.046329
0.0462764
0.0462245
0.0461731
0.0461224
0.0460724
0.046023
0.0459742
0.045926
0.0458782
0.0458312
0.0457843
0.0457384
0.0456924
0.0456477
0.0456023
0.0455588
0.0455138
0.0454717
0.0454268
0.0453864
0.0453413
0.0453031
0.045257
0.0452217
0.0451735
0.0451426
0.0450915
0.0450636
0.0450121
0.0449843
0.0449325
0.0449053
0.044847
0.00171953
0.00660947
0.0120991
0.0206243
0.0298629
0.039734
0.0490229
0.0575056
0.0640705
0.0691556
0.0723531
0.0746137
0.0758906
0.0765428
0.0766975
0.0765925
0.0762301
0.0756568
0.0749609
0.07422
0.0734291
0.0726078
0.0717766
0.0709432
0.0701275
0.0693213
0.0685283
0.0677572
0.0670016
0.0662706
0.0655628
0.0648766
0.0642099
0.0635669
0.0629426
0.0623409
0.0617586
0.061197
0.0606504
0.0601243
0.0596135
0.0591196
0.058641
0.0581769
0.0577279
0.0572923
0.0568696
0.0564598
0.0560616
0.0556756
0.0553005
0.0549365
0.0545819
0.0542372
0.0539023
0.0535764
0.0532589
0.0529501
0.0526492
0.0523561
0.0520702
0.0517916
0.0515197
0.0512547
0.0509957
0.0507432
0.0504966
0.0502558
0.0500205
0.0497907
0.0495659
0.0493462
0.0491314
0.0489212
0.0487156
0.0485144
0.0483174
0.0481247
0.0479358
0.0477509
0.0475699
0.0473924
0.0472185
0.047048
0.0468809
0.0467171
0.0465563
0.0463987
0.0462441
0.0460924
0.0459435
0.0457973
0.0456539
0.045513
0.0453747
0.0452388
0.0451054
0.0449743
0.0448456
0.044719
0.0445947
0.0444725
0.0443523
0.0442342
0.044118
0.0440038
0.0438915
0.043781
0.0436723
0.0435654
0.0434602
0.0433567
0.0432548
0.0431546
0.0430559
0.0429588
0.0428631
0.042769
0.0426763
0.042585
0.0424951
0.0424065
0.0423193
0.0422333
0.0421487
0.0420653
0.0419831
0.0419021
0.0418223
0.0417437
0.0416662
0.0415898
0.0415145
0.0414402
0.041367
0.0412949
0.0412237
0.0411536
0.0410844
0.0410162
0.0409489
0.0408825
0.0408171
0.0407525
0.0406888
0.040626
0.040564
0.0405029
0.0404426
0.040383
0.0403243
0.0402663
0.0402091
0.0401527
0.040097
0.040042
0.0399877
0.0399342
0.0398813
0.0398291
0.0397776
0.0397267
0.0396765
0.039627
0.0395781
0.0395298
0.0394821
0.039435
0.0393886
0.0393427
0.0392974
0.0392526
0.0392085
0.0391649
0.0391218
0.0390791
0.039037
0.0389952
0.0389542
0.0389132
0.0388732
0.0388329
0.0387938
0.0387541
0.0387161
0.0386767
0.03864
0.0386008
0.0385658
0.0385261
0.0384934
0.0384523
0.0384231
0.03838
0.0383538
0.0383099
0.0382844
0.0382409
0.0382161
0.0381692
0.000874538
0.00258726
0.00465674
0.00794124
0.0121195
0.017272
0.0230011
0.0295056
0.0359498
0.0423068
0.0476671
0.0521839
0.0556574
0.0582494
0.0600749
0.061359
0.0621545
0.062584
0.0627125
0.062658
0.0624662
0.0621269
0.0617125
0.0612318
0.0607206
0.0601827
0.0596187
0.0590485
0.0584712
0.0578969
0.0573299
0.0567698
0.0562173
0.0556773
0.0551475
0.0546317
0.0541287
0.0536401
0.0531622
0.0526993
0.0522481
0.0518099
0.0513841
0.0509698
0.050568
0.0501772
0.0497974
0.0494284
0.0490695
0.048721
0.0483819
0.0480525
0.0477315
0.0474192
0.0471155
0.0468198
0.0465317
0.0462512
0.0459779
0.0457117
0.0454519
0.0451987
0.0449516
0.0447107
0.0444754
0.0442458
0.0440217
0.0438029
0.0435891
0.0433802
0.043176
0.0429764
0.0427814
0.0425905
0.0424039
0.0422212
0.0420425
0.0418676
0.0416962
0.0415285
0.0413643
0.0412035
0.0410458
0.0408914
0.0407399
0.0405915
0.040446
0.0403033
0.0401633
0.0400261
0.0398914
0.0397592
0.0396295
0.0395021
0.0393771
0.0392543
0.0391338
0.0390154
0.0388991
0.0387849
0.0386726
0.0385623
0.0384539
0.0383474
0.0382426
0.0381396
0.0380384
0.0379388
0.0378409
0.0377445
0.0376498
0.0375566
0.0374648
0.0373746
0.0372858
0.0371983
0.0371123
0.0370276
0.0369442
0.0368621
0.0367812
0.0367016
0.0366232
0.036546
0.0364699
0.036395
0.0363212
0.0362484
0.0361768
0.0361062
0.0360366
0.035968
0.0359004
0.0358338
0.0357681
0.0357034
0.0356395
0.0355766
0.0355146
0.0354534
0.0353931
0.0353336
0.0352749
0.035217
0.0351599
0.0351036
0.0350481
0.0349933
0.0349393
0.0348859
0.0348333
0.0347814
0.0347302
0.0346797
0.0346298
0.0345806
0.034532
0.034484
0.0344367
0.03439
0.0343439
0.0342984
0.0342535
0.0342091
0.0341654
0.0341222
0.0340795
0.0340374
0.0339959
0.0339548
0.0339143
0.0338743
0.0338348
0.0337958
0.0337573
0.0337192
0.0336815
0.0336443
0.0336075
0.033571
0.0335351
0.0334994
0.0334643
0.0334292
0.0333949
0.0333603
0.0333271
0.0332929
0.033261
0.0332267
0.0331966
0.0331614
0.0331343
0.0330976
0.0330733
0.0330358
0.0330129
0.0329757
0.0329543
0.0329145
0.000656671
0.00132209
0.00216755
0.00342104
0.00503603
0.0072344
0.00981249
0.0130989
0.0168115
0.0211547
0.0256804
0.0302678
0.0345644
0.0383891
0.0416065
0.0442719
0.0463756
0.0480016
0.0492017
0.050073
0.0506738
0.0510437
0.0512406
0.0512801
0.051232
0.0511002
0.0508837
0.0506222
0.0503179
0.049985
0.0496364
0.0492693
0.0488906
0.0485074
0.0481197
0.0477325
0.0473477
0.0469669
0.0465888
0.0462171
0.0458511
0.0454912
0.0451387
0.0447929
0.0444551
0.0441244
0.0438013
0.0434856
0.0431772
0.0428764
0.0425827
0.0422963
0.0420165
0.0417434
0.0414771
0.0412173
0.0409635
0.040716
0.0404744
0.0402386
0.0400083
0.0397834
0.0395638
0.0393493
0.0391396
0.0389349
0.0387348
0.0385393
0.0383481
0.0381612
0.0379784
0.0377996
0.0376247
0.0374535
0.0372861
0.0371221
0.0369616
0.0368045
0.0366506
0.0364998
0.0363522
0.0362075
0.0360657
0.0359267
0.0357904
0.0356569
0.0355258
0.0353973
0.0352713
0.0351477
0.0350264
0.0349073
0.0347904
0.0346757
0.034563
0.0344524
0.0343438
0.0342371
0.0341323
0.0340294
0.0339282
0.0338288
0.0337311
0.0336351
0.0335407
0.0334479
0.0333567
0.0332669
0.0331787
0.0330919
0.0330065
0.0329224
0.0328398
0.0327585
0.0326784
0.0325996
0.0325221
0.0324458
0.0323707
0.0322967
0.0322238
0.0321521
0.0320815
0.0320119
0.0319434
0.0318759
0.0318094
0.0317439
0.0316793
0.0316157
0.0315531
0.0314913
0.0314304
0.0313704
0.0313113
0.031253
0.0311955
0.0311388
0.031083
0.0310279
0.0309736
0.03092
0.0308672
0.0308151
0.0307637
0.030713
0.030663
0.0306137
0.0305651
0.0305171
0.0304697
0.030423
0.0303769
0.0303314
0.0302866
0.0302423
0.0301985
0.0301554
0.0301128
0.0300708
0.0300293
0.0299884
0.029948
0.0299081
0.0298688
0.0298299
0.0297916
0.0297537
0.0297163
0.0296794
0.029643
0.029607
0.0295715
0.0295365
0.0295018
0.0294676
0.0294337
0.0294003
0.0293672
0.0293345
0.0293022
0.0292703
0.0292386
0.0292073
0.0291764
0.0291457
0.0291156
0.0290855
0.0290564
0.0290264
0.0289989
0.0289684
0.0289433
0.0289118
0.0288893
0.028857
0.0288365
0.0288041
0.0287859
0.0287512
0.00058635
0.000878769
0.00127369
0.00181793
0.00247114
0.00337059
0.00442266
0.00582549
0.00748396
0.00959182
0.0120606
0.0149223
0.0180662
0.0213702
0.0246295
0.0277375
0.0305523
0.0330282
0.0351278
0.0368802
0.0383075
0.0394467
0.0403403
0.0410161
0.0415204
0.0418828
0.0421158
0.0422522
0.0422997
0.0422826
0.042222
0.0421057
0.0419547
0.0417775
0.0415753
0.0413566
0.0411267
0.0408853
0.0406355
0.040381
0.0401237
0.0398631
0.0396031
0.0393433
0.0390851
0.0388286
0.0385748
0.0383241
0.0380766
0.0378329
0.0375932
0.0373577
0.037126
0.0368985
0.0366754
0.0364566
0.0362419
0.0360317
0.0358256
0.0356238
0.0354259
0.0352322
0.0350424
0.0348565
0.0346745
0.0344963
0.0343217
0.0341508
0.0339834
0.0338194
0.0336587
0.0335014
0.0333472
0.0331962
0.0330482
0.0329031
0.032761
0.0326217
0.0324851
0.0323512
0.0322199
0.0320911
0.0319648
0.031841
0.0317195
0.0316003
0.0314833
0.0313685
0.0312558
0.0311452
0.0310367
0.0309301
0.0308254
0.0307226
0.0306216
0.0305224
0.030425
0.0303292
0.0302352
0.0301427
0.0300519
0.0299626
0.0298747
0.0297884
0.0297035
0.0296201
0.029538
0.0294572
0.0293778
0.0292997
0.0292228
0.0291471
0.0290727
0.0289994
0.0289273
0.0288563
0.0287865
0.0287177
0.02865
0.0285833
0.0285176
0.0284529
0.0283892
0.0283265
0.0282647
0.0282038
0.0281438
0.0280847
0.0280264
0.027969
0.0279125
0.0278567
0.0278018
0.0277476
0.0276942
0.0276416
0.0275897
0.0275386
0.0274881
0.0274384
0.0273893
0.027341
0.0272932
0.0272462
0.0271998
0.027154
0.0271089
0.0270643
0.0270204
0.026977
0.0269342
0.026892
0.0268504
0.0268093
0.0267687
0.0267287
0.0266892
0.0266502
0.0266118
0.0265738
0.0265363
0.0264993
0.0264628
0.0264268
0.0263912
0.0263561
0.0263215
0.0262873
0.0262535
0.0262202
0.0261872
0.0261548
0.0261226
0.026091
0.0260597
0.0260288
0.0259982
0.025968
0.0259381
0.0259087
0.0258794
0.0258508
0.0258221
0.0257941
0.025766
0.0257387
0.0257113
0.0256846
0.0256581
0.0256316
0.0256065
0.0255798
0.0255567
0.0255293
0.0255086
0.0254804
0.025462
0.0254335
0.0254179
0.0253872
0.000560629
0.000698579
0.000903662
0.00117603
0.00147873
0.00188202
0.00233238
0.00292273
0.003618
0.0045128
0.00560112
0.00695044
0.00856499
0.0104646
0.0125945
0.0149171
0.0173263
0.0197384
0.0220484
0.0241967
0.0261332
0.027841
0.0293188
0.0305748
0.0316281
0.0325036
0.0332151
0.0337902
0.0342413
0.0345895
0.0348539
0.0350411
0.0351634
0.0352346
0.035256
0.0352433
0.0352034
0.0351311
0.0350378
0.0349264
0.0348017
0.0346614
0.0345144
0.034359
0.0341966
0.0340294
0.0338584
0.0336853
0.03351
0.0333338
0.0331578
0.0329818
0.0328061
0.0326314
0.0324581
0.0322864
0.0321162
0.0319481
0.0317821
0.0316184
0.0314568
0.0312977
0.0311408
0.0309865
0.0308346
0.0306851
0.0305382
0.0303938
0.0302518
0.0301123
0.0299752
0.0298405
0.0297081
0.0295781
0.0294505
0.029325
0.0292018
0.0290809
0.028962
0.0288453
0.0287307
0.0286181
0.0285075
0.0283989
0.0282921
0.0281873
0.0280843
0.0279831
0.0278836
0.0277859
0.0276899
0.0275955
0.0275028
0.0274116
0.0273219
0.0272339
0.0271472
0.027062
0.0269783
0.0268959
0.0268149
0.0267352
0.0266568
0.0265797
0.0265039
0.0264292
0.0263558
0.0262835
0.0262124
0.0261424
0.0260735
0.0260056
0.0259389
0.0258731
0.0258084
0.0257447
0.0256819
0.0256201
0.0255592
0.0254992
0.0254402
0.025382
0.0253247
0.0252682
0.0252125
0.0251577
0.0251036
0.0250504
0.0249979
0.0249461
0.0248951
0.0248448
0.0247953
0.0247464
0.0246982
0.0246507
0.0246039
0.0245577
0.0245121
0.0244672
0.0244229
0.0243792
0.0243361
0.0242935
0.0242516
0.0242102
0.0241694
0.0241291
0.0240893
0.0240501
0.0240114
0.0239732
0.0239355
0.0238983
0.0238616
0.0238254
0.0237897
0.0237544
0.0237195
0.0236852
0.0236512
0.0236177
0.0235847
0.023552
0.0235198
0.023488
0.0234566
0.0234257
0.0233951
0.0233649
0.023335
0.0233056
0.0232765
0.0232479
0.0232195
0.0231916
0.0231638
0.0231365
0.0231094
0.0230828
0.0230563
0.0230304
0.0230044
0.0229792
0.0229537
0.0229292
0.0229043
0.0228804
0.0228564
0.0228328
0.0228099
0.0227863
0.0227652
0.0227411
0.0227221
0.0226974
0.0226809
0.0226555
0.0226421
0.0226147
0.000550228
0.000618064
0.000729464
0.000879918
0.00103911
0.0012435
0.00146193
0.00173417
0.00204479
0.00243038
0.00289241
0.00346918
0.00417097
0.00504134
0.00608489
0.00732453
0.00874643
0.0103391
0.0120548
0.0138445
0.0156449
0.0174018
0.0190682
0.0206119
0.022012
0.023266
0.0243681
0.0253312
0.0261591
0.0268673
0.0274671
0.0279704
0.0283866
0.0287289
0.0290035
0.0292214
0.0293914
0.0295166
0.0296045
0.0296594
0.0296889
0.0296884
0.0296749
0.0296418
0.0295912
0.0295285
0.0294547
0.0293724
0.029281
0.0291839
0.0290822
0.0289753
0.0288645
0.0287507
0.0286347
0.0285171
0.0283978
0.0282778
0.0281575
0.028037
0.0279163
0.027796
0.0276761
0.0275568
0.0274385
0.0273209
0.0272045
0.0270892
0.0269751
0.0268623
0.0267507
0.0266405
0.0265318
0.0264244
0.0263185
0.026214
0.0261109
0.0260094
0.0259093
0.0258107
0.0257135
0.0256178
0.0255236
0.0254307
0.0253393
0.0252493
0.0251606
0.0250733
0.0249874
0.0249028
0.0248195
0.0247376
0.0246568
0.0245774
0.0244991
0.0244221
0.0243462
0.0242716
0.0241981
0.0241257
0.0240544
0.0239843
0.0239152
0.0238471
0.0237801
0.0237141
0.0236492
0.0235851
0.0235221
0.02346
0.0233988
0.0233385
0.0232792
0.0232207
0.0231631
0.0231063
0.0230503
0.0229952
0.0229408
0.0228873
0.0228345
0.0227825
0.0227312
0.0226806
0.0226308
0.0225817
0.0225332
0.0224855
0.0224384
0.0223919
0.0223462
0.022301
0.0222565
0.0222125
0.0221692
0.0221265
0.0220843
0.0220428
0.0220018
0.0219613
0.0219214
0.021882
0.0218431
0.0218048
0.0217669
0.0217296
0.0216928
0.0216564
0.0216205
0.0215851
0.0215501
0.0215157
0.0214816
0.021448
0.0214148
0.0213821
0.0213497
0.0213178
0.0212863
0.0212552
0.0212245
0.0211942
0.0211642
0.0211347
0.0211055
0.0210767
0.0210483
0.0210202
0.0209925
0.0209651
0.0209381
0.0209114
0.0208851
0.0208591
0.0208334
0.0208081
0.0207829
0.0207582
0.0207336
0.0207096
0.0206855
0.0206622
0.0206386
0.0206159
0.0205927
0.0205707
0.0205481
0.0205267
0.0205049
0.0204838
0.020463
0.020442
0.0204227
0.0204014
0.0203841
0.0203622
0.0203474
0.0203248
0.0203131
0.0202887
0.000545458
0.000580039
0.000640578
0.000727389
0.000818464
0.000932297
0.00105126
0.00119246
0.00134814
0.00153185
0.0017439
0.00199923
0.00230292
0.00267775
0.00313087
0.00368655
0.00435532
0.0051534
0.00608383
0.00714636
0.00832489
0.00959736
0.0109303
0.0122891
0.0136345
0.0149408
0.0161771
0.0173324
0.0183912
0.0193536
0.0202173
0.020987
0.021666
0.0222626
0.0227818
0.0232319
0.0236192
0.0239501
0.0242305
0.0244654
0.0246624
0.0248209
0.0249509
0.0250531
0.0251301
0.0251858
0.0252223
0.0252432
0.0252469
0.0252408
0.025224
0.0251955
0.0251588
0.0251147
0.025064
0.0250082
0.0249467
0.0248815
0.0248133
0.0247415
0.0246671
0.0245906
0.0245124
0.0244326
0.0243518
0.02427
0.0241875
0.0241047
0.0240216
0.0239383
0.023855
0.0237718
0.0236889
0.0236063
0.0235241
0.0234424
0.0233613
0.0232808
0.0232009
0.0231218
0.0230434
0.0229658
0.022889
0.022813
0.0227378
0.0226634
0.02259
0.0225173
0.0224456
0.0223748
0.0223048
0.0222358
0.0221676
0.0221003
0.0220338
0.0219682
0.0219035
0.0218397
0.0217767
0.0217145
0.0216532
0.0215928
0.0215331
0.0214743
0.0214162
0.0213589
0.0213025
0.0212468
0.0211918
0.0211376
0.0210842
0.0210315
0.0209795
0.0209282
0.0208776
0.0208277
0.0207785
0.0207299
0.020682
0.0206348
0.0205882
0.0205422
0.0204968
0.0204521
0.0204079
0.0203644
0.0203214
0.020279
0.0202371
0.0201958
0.0201551
0.0201149
0.0200752
0.0200361
0.0199974
0.0199593
0.0199217
0.0198845
0.0198479
0.0198117
0.019776
0.0197407
0.0197059
0.0196715
0.0196376
0.0196041
0.0195711
0.0195384
0.0195062
0.0194744
0.019443
0.019412
0.0193813
0.0193511
0.0193212
0.0192918
0.0192626
0.0192339
0.0192055
0.0191775
0.0191498
0.0191224
0.0190954
0.0190688
0.0190424
0.0190164
0.0189908
0.0189654
0.0189404
0.0189157
0.0188912
0.0188671
0.0188433
0.0188198
0.0187966
0.0187737
0.0187509
0.0187286
0.0187063
0.0186847
0.0186629
0.0186418
0.0186205
0.0186
0.0185791
0.0185592
0.0185389
0.0185196
0.0184999
0.018481
0.0184622
0.0184435
0.018426
0.0184071
0.0183914
0.018372
0.0183586
0.0183385
0.0183282
0.0183065
0.00054288
0.000561136
0.000593233
0.000643296
0.000697329
0.00076429
0.00083425
0.00091448
0.00100102
0.00109887
0.00120763
0.00133282
0.00147632
0.00164716
0.00184797
0.0020912
0.00238377
0.0027372
0.0031624
0.00367057
0.00426689
0.00495776
0.00574017
0.00660953
0.00754801
0.00854303
0.00956684
0.0106022
0.0116228
0.0126145
0.0135604
0.0144519
0.0152807
0.0160455
0.0167439
0.0173786
0.0179505
0.0184639
0.0189221
0.0193288
0.0196898
0.0200063
0.0202848
0.0205275
0.020738
0.0209194
0.0210744
0.0212065
0.0213164
0.0214079
0.0214832
0.0215426
0.0215882
0.0216218
0.0216441
0.0216573
0.0216602
0.0216568
0.0216471
0.0216299
0.0216074
0.0215801
0.0215485
0.0215129
0.0214743
0.0214322
0.0213877
0.0213414
0.0212927
0.0212422
0.0211903
0.021137
0.0210828
0.0210275
0.0209717
0.0209151
0.0208579
0.0208006
0.020743
0.0206851
0.0206272
0.0205693
0.0205114
0.0204536
0.020396
0.0203386
0.0202815
0.0202247
0.0201682
0.0201121
0.0200564
0.0200011
0.0199462
0.0198918
0.0198378
0.0197844
0.0197314
0.019679
0.019627
0.0195756
0.0195247
0.0194744
0.0194245
0.0193753
0.0193265
0.0192783
0.0192307
0.0191835
0.019137
0.0190909
0.0190454
0.0190004
0.018956
0.0189121
0.0188687
0.0188258
0.0187834
0.0187415
0.0187002
0.0186593
0.018619
0.0185791
0.0185397
0.0185008
0.0184623
0.0184244
0.0183869
0.0183498
0.0183132
0.0182771
0.0182413
0.0182061
0.0181712
0.0181368
0.0181028
0.0180692
0.0180361
0.0180033
0.0179709
0.0179389
0.0179073
0.0178761
0.0178453
0.0178149
0.0177848
0.0177551
0.0177257
0.0176967
0.017668
0.0176397
0.0176118
0.0175841
0.0175568
0.0175299
0.0175032
0.0174769
0.0174509
0.0174252
0.0173998
0.0173748
0.01735
0.0173255
0.0173013
0.0172774
0.0172538
0.0172305
0.0172075
0.0171848
0.0171623
0.0171401
0.0171181
0.0170965
0.017075
0.017054
0.017033
0.0170125
0.016992
0.0169719
0.0169519
0.0169324
0.0169128
0.0168938
0.0168747
0.0168563
0.0168375
0.0168196
0.0168013
0.016784
0.0167664
0.0167494
0.0167326
0.0167159
0.0167001
0.0166834
0.0166692
0.0166521
0.01664
0.0166222
0.0166131
0.0165937
0.000541242
0.000550917
0.000567284
0.000595163
0.000627069
0.000667118
0.00070971
0.000757822
0.000809289
0.000865967
0.000927221
0.000995336
0.0010705
0.00115667
0.00125416
0.00136859
0.00150193
0.00166038
0.00184899
0.00207488
0.00234329
0.00266363
0.00304
0.00348027
0.00398397
0.00455617
0.00518911
0.00588002
0.00661525
0.00738523
0.00817397
0.00896924
0.00975581
0.0105241
0.0112635
0.0119686
0.012633
0.0132548
0.0138323
0.014365
0.0148552
0.0153026
0.0157106
0.0160804
0.0164148
0.0167162
0.0169869
0.0172294
0.0174457
0.0176381
0.017809
0.0179599
0.0180925
0.0182084
0.018309
0.0183962
0.0184702
0.0185331
0.0185861
0.0186293
0.0186638
0.0186906
0.0187104
0.0187236
0.0187316
0.0187332
0.0187311
0.018725
0.0187143
0.0187002
0.018683
0.0186629
0.0186404
0.0186154
0.0185886
0.0185596
0.018529
0.0184973
0.018464
0.0184296
0.0183941
0.0183578
0.0183207
0.0182829
0.0182445
0.0182056
0.0181663
0.0181266
0.0180867
0.0180466
0.0180063
0.0179659
0.0179254
0.0178849
0.0178445
0.017804
0.0177637
0.0177234
0.0176833
0.0176434
0.0176036
0.017564
0.0175247
0.0174855
0.0174467
0.0174081
0.0173697
0.0173316
0.0172939
0.0172564
0.0172192
0.0171824
0.0171458
0.0171096
0.0170737
0.0170381
0.0170029
0.016968
0.0169334
0.0168991
0.0168652
0.0168317
0.0167984
0.0167655
0.016733
0.0167007
0.0166688
0.0166373
0.0166061
0.0165752
0.0165446
0.0165143
0.0164844
0.0164548
0.0164255
0.0163966
0.0163679
0.0163396
0.0163115
0.0162838
0.0162564
0.0162293
0.0162024
0.0161759
0.0161497
0.0161238
0.0160981
0.0160727
0.0160477
0.0160229
0.0159983
0.0159741
0.0159501
0.0159264
0.0159029
0.0158798
0.0158568
0.0158342
0.0158118
0.0157896
0.0157677
0.0157461
0.0157247
0.0157035
0.0156826
0.0156619
0.0156415
0.0156213
0.0156014
0.0155816
0.0155621
0.0155429
0.0155238
0.015505
0.0154864
0.0154681
0.0154498
0.0154319
0.0154141
0.0153967
0.0153792
0.0153623
0.0153452
0.0153288
0.0153121
0.0152961
0.0152799
0.0152644
0.0152487
0.0152336
0.0152186
0.0152038
0.0151898
0.015175
0.0151623
0.0151473
0.0151364
0.0151207
0.0151127
0.0150955
0.000540075
0.000544672
0.000552504
0.000566962
0.000585013
0.000608511
0.000634351
0.000663682
0.000695202
0.000729601
0.000766211
0.000806108
0.000848861
0.000896481
0.000948507
0.00100766
0.00107414
0.00115092
0.00123975
0.00134373
0.0014654
0.00160993
0.00177943
0.00198068
0.00221574
0.00249186
0.00280965
0.00317452
0.00358534
0.0040433
0.00454391
0.00508392
0.00565492
0.00625021
0.0068599
0.00747622
0.00808972
0.0086934
0.00928077
0.00984622
0.0103873
0.0108998
0.0113836
0.0118366
0.0122596
0.0126524
0.0130163
0.0133519
0.0136609
0.0139443
0.014204
0.0144412
0.0146575
0.0148542
0.0150326
0.0151944
0.0153403
0.0154718
0.0155901
0.015696
0.0157906
0.0158746
0.0159491
0.0160145
0.0160722
0.0161218
0.0161648
0.0162018
0.0162327
0.0162582
0.0162788
0.0162949
0.016307
0.0163151
0.01632
0.0163211
0.0163199
0.0163162
0.0163096
0.0163008
0.01629
0.0162773
0.0162629
0.016247
0.0162296
0.016211
0.0161912
0.0161702
0.0161485
0.0161258
0.0161023
0.0160781
0.0160533
0.016028
0.0160021
0.0159758
0.0159491
0.015922
0.0158948
0.0158672
0.0158394
0.0158115
0.0157834
0.0157552
0.0157269
0.0156986
0.0156702
0.0156418
0.0156135
0.0155851
0.0155569
0.0155286
0.0155005
0.0154725
0.0154445
0.0154167
0.015389
0.0153615
0.015334
0.0153068
0.0152797
0.0152528
0.015226
0.0151994
0.015173
0.0151468
0.0151208
0.015095
0.0150693
0.0150439
0.0150187
0.0149937
0.0149688
0.0149442
0.0149198
0.0148957
0.0148717
0.0148479
0.0148244
0.014801
0.0147779
0.014755
0.0147323
0.0147098
0.0146876
0.0146655
0.0146436
0.014622
0.0146006
0.0145793
0.0145583
0.0145375
0.0145169
0.0144965
0.0144763
0.0144563
0.0144365
0.014417
0.0143976
0.0143784
0.0143594
0.0143406
0.014322
0.0143036
0.0142854
0.0142674
0.0142496
0.014232
0.0142145
0.0141973
0.0141802
0.0141633
0.0141466
0.0141302
0.0141138
0.0140977
0.0140817
0.014066
0.0140503
0.014035
0.0140196
0.0140047
0.0139897
0.0139752
0.0139605
0.0139465
0.0139322
0.0139185
0.0139047
0.0138915
0.0138783
0.0138652
0.0138529
0.01384
0.0138287
0.0138157
0.013806
0.0137924
0.0137854
0.0137703
0.000539162
0.000540425
0.000543525
0.000549983
0.000559307
0.000572262
0.000587288
0.000604789
0.000623932
0.000644994
0.000667365
0.000691599
0.000717145
0.00074508
0.000774846
0.000807832
0.000843865
0.000884248
0.000929664
0.00098145
0.00104037
0.00110906
0.0011878
0.00128058
0.00138802
0.00151442
0.00166103
0.00183244
0.00203016
0.0022579
0.00251682
0.00280946
0.0031353
0.00349431
0.00388401
0.0043018
0.00474306
0.00520277
0.00567566
0.00615514
0.00663708
0.00711476
0.00758515
0.00804316
0.00848668
0.00891254
0.00931972
0.00970637
0.0100725
0.0104174
0.0107415
0.011045
0.0113286
0.0115929
0.0118386
0.0120667
0.0122778
0.0124732
0.0126536
0.0128199
0.012973
0.0131136
0.0132428
0.0133609
0.0134691
0.0135678
0.0136577
0.0137395
0.0138138
0.0138809
0.0139414
0.0139958
0.0140447
0.0140882
0.0141269
0.0141609
0.0141907
0.0142169
0.0142392
0.0142582
0.014274
0.014287
0.0142973
0.0143051
0.0143105
0.0143139
0.0143151
0.0143146
0.0143127
0.0143089
0.0143037
0.0142972
0.0142894
0.0142805
0.0142705
0.0142595
0.0142477
0.014235
0.0142216
0.0142074
0.0141926
0.0141773
0.0141614
0.0141451
0.0141282
0.014111
0.0140934
0.0140755
0.0140573
0.0140388
0.0140201
0.0140012
0.0139821
0.0139628
0.0139434
0.0139239
0.0139043
0.0138846
0.0138649
0.0138451
0.0138253
0.0138054
0.0137855
0.0137657
0.0137458
0.013726
0.0137062
0.0136865
0.0136668
0.0136472
0.0136276
0.0136081
0.0135887
0.0135694
0.0135501
0.013531
0.0135119
0.013493
0.0134741
0.0134554
0.0134368
0.0134183
0.0133999
0.0133816
0.0133635
0.0133454
0.0133276
0.0133098
0.0132922
0.0132747
0.0132573
0.0132401
0.013223
0.013206
0.0131892
0.0131725
0.0131559
0.0131395
0.0131232
0.0131071
0.0130911
0.0130753
0.0130596
0.013044
0.0130286
0.0130133
0.0129982
0.0129832
0.0129683
0.0129536
0.012939
0.0129246
0.0129103
0.0128962
0.0128822
0.0128684
0.0128546
0.0128411
0.0128276
0.0128144
0.0128011
0.0127883
0.0127753
0.0127628
0.0127501
0.012738
0.0127256
0.0127138
0.0127019
0.0126904
0.0126791
0.0126678
0.0126571
0.012646
0.0126362
0.012625
0.0126167
0.012605
0.012599
0.012586
0.000538257
0.000537313
0.000537708
0.000539405
0.000543233
0.00054941
0.00055733
0.000567049
0.000578066
0.00059054
0.000603965
0.000618627
0.000634046
0.000650802
0.000668436
0.000687642
0.000708238
0.000730799
0.00075555
0.000783219
0.000813796
0.000848778
0.000887904
0.000933123
0.000984586
0.00104414
0.00111263
0.00119226
0.00128389
0.00139006
0.00151217
0.00165269
0.00181304
0.00199505
0.00220004
0.002429
0.0026823
0.0029592
0.00325916
0.00357936
0.00391856
0.00427231
0.00463843
0.00501216
0.00539075
0.00576991
0.00614704
0.00651851
0.00688249
0.00723634
0.00757886
0.00790855
0.00822468
0.00852649
0.00881373
0.00908632
0.00934417
0.00958777
0.00981719
0.010033
0.0102355
0.0104254
0.0106031
0.0107692
0.0109244
0.011069
0.0112037
0.011329
0.0114456
0.0115538
0.0116542
0.0117472
0.0118333
0.0119128
0.0119863
0.0120539
0.0121162
0.0121735
0.012226
0.0122742
0.0123181
0.0123582
0.0123945
0.0124276
0.0124573
0.0124841
0.0125081
0.0125294
0.0125484
0.012565
0.0125795
0.0125919
0.0126025
0.0126113
0.0126185
0.0126241
0.0126283
0.012631
0.0126327
0.0126329
0.0126322
0.0126307
0.0126279
0.0126243
0.0126198
0.0126146
0.0126087
0.0126021
0.0125948
0.012587
0.0125786
0.0125697
0.0125604
0.0125506
0.0125404
0.0125299
0.012519
0.0125078
0.0124962
0.0124845
0.0124724
0.0124602
0.0124477
0.0124351
0.0124223