/*--------------------------------*- C++ -*----------------------------------*\
  =========                 |
  \\      /  F ield         | OpenFOAM: The Open Source CFD Toolbox
   \\    /   O peration     | Website:  https://openfoam.org
    \\  /    A nd           | Version:  12
     \\/     M anipulation  |
\*---------------------------------------------------------------------------*/
FoamFile
{
    format      ascii;
    class       volScalarField;
    location    "700";
    object      k;
}
// * * * * * * * * * * * * * * * * * * * * * * * * * * * * * * * * * * * * * //

dimensions      [0 2 -2 0 0 0 0];

internalField   nonuniform List<scalar> 
20000
(
0.00121539
0.000456548
0.000505714
0.000674965
0.00078601
0.000874233
0.000961897
0.00105503
0.00113228
0.00120311
0.00125061
0.00130244
0.00133574
0.00136892
0.00139716
0.001423
0.00144267
0.00145969
0.00147319
0.00148549
0.00149474
0.00150253
0.00150862
0.00151345
0.00151752
0.00152019
0.00152214
0.00152332
0.00152362
0.00152346
0.00152295
0.00152187
0.00152035
0.00151859
0.00151647
0.00151413
0.00151169
0.00150903
0.00150612
0.0015032
0.00150006
0.0014969
0.0014936
0.00149025
0.00148688
0.00148344
0.00147994
0.00147646
0.00147291
0.0014694
0.00146587
0.00146236
0.00145881
0.00145529
0.00145179
0.00144831
0.00144483
0.00144138
0.00143796
0.00143456
0.00143119
0.00142785
0.00142452
0.00142124
0.00141797
0.00141476
0.00141156
0.00140841
0.00140528
0.0014022
0.00139914
0.00139612
0.00139313
0.00139017
0.00138726
0.00138437
0.00138152
0.00137871
0.00137593
0.00137318
0.00137047
0.00136779
0.00136515
0.00136253
0.00135995
0.00135741
0.00135489
0.00135241
0.00134996
0.00134754
0.00134515
0.00134278
0.00134046
0.00133815
0.00133588
0.00133364
0.00133143
0.00132924
0.00132708
0.00132495
0.00132285
0.00132077
0.00131872
0.0013167
0.0013147
0.00131273
0.00131078
0.00130886
0.00130696
0.00130508
0.00130323
0.0013014
0.0012996
0.00129782
0.00129605
0.00129432
0.0012926
0.00129091
0.00128923
0.00128758
0.00128595
0.00128434
0.00128275
0.00128118
0.00127962
0.00127809
0.00127658
0.00127508
0.0012736
0.00127214
0.00127071
0.00126928
0.00126788
0.00126649
0.00126512
0.00126376
0.00126242
0.0012611
0.0012598
0.00125851
0.00125723
0.00125597
0.00125473
0.0012535
0.00125229
0.00125109
0.00124991
0.00124874
0.00124758
0.00124644
0.00124531
0.0012442
0.0012431
0.00124201
0.00124093
0.00123987
0.00123882
0.00123779
0.00123676
0.00123575
0.00123475
0.00123377
0.00123279
0.00123183
0.00123088
0.00122994
0.00122901
0.0012281
0.00122719
0.0012263
0.00122542
0.00122455
0.00122369
0.00122284
0.001222
0.00122117
0.00122034
0.00121953
0.00121872
0.00121792
0.00121713
0.00121634
0.00121558
0.00121479
0.00121405
0.00121326
0.00121255
0.00121176
0.0012111
0.00121027
0.00120969
0.00120879
0.00120833
0.00120735
0.00120696
0.00120599
0.00120561
0.00120461
0.0012043
0.00120276
0.00309521
0.00342051
0.00442793
0.00580109
0.00659107
0.00720993
0.00780775
0.00842482
0.00891538
0.00935177
0.0096273
0.00992662
0.0101074
0.0102862
0.0104337
0.0105667
0.010662
0.0107422
0.0108017
0.010855
0.0108908
0.0109188
0.0109378
0.0109501
0.0109588
0.0109599
0.0109575
0.0109514
0.0109408
0.010928
0.0109138
0.0108968
0.0108777
0.0108578
0.0108361
0.0108137
0.0107909
0.0107673
0.0107426
0.0107181
0.0106927
0.0106675
0.0106416
0.0106158
0.01059
0.0105642
0.0105381
0.0105123
0.0104864
0.0104609
0.0104353
0.0104101
0.0103848
0.0103598
0.0103351
0.0103106
0.0102863
0.0102622
0.0102384
0.0102149
0.0101916
0.0101686
0.0101458
0.0101233
0.0101009
0.010079
0.0100573
0.0100359
0.0100147
0.00999378
0.00997312
0.00995276
0.00993263
0.00991277
0.00989318
0.00987384
0.00985475
0.00983593
0.00981735
0.009799
0.00978093
0.00976307
0.00974546
0.00972807
0.00971092
0.00969401
0.00967731
0.00966084
0.00964459
0.00962855
0.00961273
0.00959711
0.00958171
0.00956649
0.0095515
0.00953669
0.00952208
0.00950765
0.00949343
0.00947939
0.00946554
0.00945186
0.00943837
0.00942505
0.0094119
0.00939893
0.00938611
0.00937348
0.00936099
0.00934868
0.00933651
0.00932451
0.00931265
0.00930096
0.0092894
0.00927801
0.00926675
0.00925564
0.00924466
0.00923384
0.00922313
0.00921257
0.00920213
0.00919184
0.00918167
0.00917163
0.00916171
0.00915191
0.00914224
0.00913268
0.00912325
0.00911393
0.00910473
0.00909563
0.00908666
0.00907778
0.00906903
0.00906037
0.00905183
0.00904338
0.00903504
0.0090268
0.00901867
0.00901063
0.00900269
0.00899484
0.0089871
0.00897944
0.00897188
0.0089644
0.00895702
0.00894973
0.00894252
0.0089354
0.00892837
0.00892142
0.00891455
0.00890777
0.00890106
0.00889444
0.0088879
0.00888144
0.00887505
0.00886874
0.00886251
0.00885637
0.00885029
0.0088443
0.00883837
0.00883252
0.00882673
0.00882102
0.00881538
0.00880982
0.00880432
0.00879887
0.00879347
0.00878811
0.00878284
0.00877758
0.00877243
0.00876724
0.00876223
0.00875707
0.0087522
0.00874703
0.00874238
0.00873718
0.00873284
0.00872741
0.00872357
0.00871769
0.00871462
0.00870819
0.00870557
0.00869919
0.00869657
0.00869002
0.00868788
0.00867801
0.00355494
0.00360061
0.00411387
0.00536346
0.00668329
0.00807024
0.00935084
0.0105348
0.011476
0.0122849
0.0128605
0.0134043
0.0137946
0.0141435
0.0144332
0.0146881
0.014883
0.0150484
0.0151794
0.0152943
0.0153813
0.0154536
0.01551
0.0155546
0.0155908
0.0156156
0.0156325
0.0156432
0.0156466
0.0156458
0.0156416
0.0156326
0.0156201
0.0156054
0.0155878
0.0155684
0.0155479
0.0155257
0.0155016
0.0154772
0.0154512
0.015425
0.0153977
0.01537
0.0153421
0.0153137
0.0152849
0.0152561
0.015227
0.0151981
0.015169
0.0151402
0.015111
0.0150822
0.0150535
0.0150249
0.0149965
0.0149682
0.0149402
0.0149124
0.0148848
0.0148574
0.0148302
0.0148034
0.0147767
0.0147504
0.0147243
0.0146985
0.014673
0.0146477
0.0146228
0.0145981
0.0145737
0.0145495
0.0145257
0.0145021
0.0144789
0.0144559
0.0144332
0.0144107
0.0143886
0.0143667
0.0143451
0.0143237
0.0143026
0.0142818
0.0142612
0.0142409
0.0142209
0.0142011
0.0141815
0.0141622
0.0141431
0.0141243
0.0141057
0.0140874
0.0140692
0.0140513
0.0140337
0.0140162
0.013999
0.013982
0.0139652
0.0139486
0.0139322
0.013916
0.0139
0.0138843
0.0138687
0.0138533
0.0138381
0.0138231
0.0138083
0.0137937
0.0137792
0.0137649
0.0137508
0.0137369
0.0137232
0.0137096
0.0136962
0.0136829
0.0136698
0.0136569
0.0136441
0.0136315
0.013619
0.0136067
0.0135946
0.0135825
0.0135707
0.013559
0.0135474
0.0135359
0.0135246
0.0135134
0.0135024
0.0134915
0.0134807
0.0134701
0.0134596
0.0134492
0.0134389
0.0134288
0.0134188
0.0134089
0.0133991
0.0133894
0.0133799
0.0133704
0.0133611
0.0133519
0.0133428
0.0133338
0.0133249
0.0133161
0.0133074
0.0132988
0.0132903
0.013282
0.0132737
0.0132655
0.0132574
0.0132494
0.0132416
0.0132338
0.0132261
0.0132185
0.013211
0.0132036
0.0131962
0.013189
0.0131819
0.0131748
0.0131679
0.013161
0.0131541
0.0131473
0.0131406
0.013134
0.0131275
0.0131209
0.0131145
0.0131081
0.0131018
0.0130954
0.0130893
0.013083
0.0130773
0.0130707
0.0130655
0.0130585
0.0130543
0.0130466
0.0130431
0.0130354
0.0130318
0.0130243
0.0130209
0.0130113
0.00376345
0.00367995
0.00376217
0.00416041
0.00503587
0.00623638
0.00752785
0.00891273
0.0101741
0.0113401
0.0122831
0.0131469
0.0138481
0.0144606
0.0149768
0.0154267
0.0157886
0.0160996
0.0163566
0.0165813
0.0167638
0.0169205
0.017051
0.0171613
0.0172554
0.017332
0.0173948
0.0174467
0.0174872
0.01752
0.0175451
0.0175633
0.0175754
0.017583
0.0175854
0.0175845
0.0175809
0.0175739
0.0175637
0.0175521
0.0175379
0.0175223
0.017505
0.0174863
0.0174668
0.017446
0.0174242
0.0174019
0.0173788
0.0173555
0.0173315
0.0173074
0.0172825
0.0172577
0.0172327
0.0172076
0.0171822
0.0171569
0.0171315
0.0171062
0.0170809
0.0170556
0.0170303
0.0170052
0.0169801
0.0169553
0.0169306
0.016906
0.0168816
0.0168574
0.0168333
0.0168095
0.0167858
0.0167623
0.0167391
0.0167161
0.0166932
0.0166707
0.0166483
0.0166261
0.0166042
0.0165825
0.016561
0.0165398
0.0165187
0.016498
0.0164774
0.016457
0.0164369
0.016417
0.0163974
0.0163779
0.0163587
0.0163397
0.0163209
0.0163023
0.0162839
0.0162657
0.0162478
0.0162301
0.0162125
0.0161952
0.0161781
0.0161611
0.0161444
0.0161279
0.0161115
0.0160954
0.0160794
0.0160637
0.0160481
0.0160327
0.0160174
0.0160024
0.0159875
0.0159729
0.0159583
0.015944
0.0159298
0.0159158
0.015902
0.0158883
0.0158748
0.0158614
0.0158482
0.0158351
0.0158222
0.0158095
0.0157969
0.0157845
0.0157722
0.01576
0.015748
0.0157361
0.0157244
0.0157128
0.0157013
0.01569
0.0156788
0.0156677
0.0156568
0.015646
0.0156353
0.0156247
0.0156143
0.015604
0.0155938
0.0155837
0.0155738
0.0155639
0.0155542
0.0155446
0.0155351
0.0155257
0.0155164
0.0155072
0.0154982
0.0154892
0.0154804
0.0154716
0.015463
0.0154544
0.015446
0.0154376
0.0154294
0.0154213
0.0154132
0.0154053
0.0153975
0.0153897
0.0153821
0.0153745
0.015367
0.0153597
0.0153524
0.0153452
0.015338
0.015331
0.015324
0.0153171
0.0153102
0.0153034
0.0152966
0.01529
0.0152833
0.0152768
0.0152703
0.0152639
0.0152577
0.0152511
0.0152454
0.0152385
0.0152338
0.0152262
0.0152224
0.0152146
0.0152109
0.0152036
0.0151999
0.0151914
0.00382063
0.00375773
0.00369082
0.00373462
0.00395244
0.00445017
0.00519538
0.00620872
0.00733367
0.00859308
0.00978029
0.0109193
0.0119285
0.0128206
0.0135941
0.0142809
0.014861
0.0153664
0.0157984
0.0161793
0.0165008
0.0167825
0.0170243
0.0172356
0.0174199
0.0175776
0.0177134
0.0178313
0.0179314
0.0180187
0.0180928
0.018156
0.0182093
0.0182546
0.0182918
0.0183229
0.0183482
0.0183684
0.0183834
0.0183951
0.0184026
0.0184071
0.0184084
0.0184073
0.0184041
0.0183985
0.018391
0.0183821
0.0183716
0.0183601
0.0183472
0.0183336
0.0183186
0.0183031
0.018287
0.0182701
0.0182527
0.0182348
0.0182165
0.0181979
0.0181789
0.0181597
0.0181402
0.0181206
0.0181007
0.0180808
0.0180608
0.0180408
0.0180207
0.0180006
0.0179804
0.0179603
0.0179403
0.0179202
0.0179003
0.0178804
0.0178606
0.0178409
0.0178213
0.0178018
0.0177825
0.0177632
0.0177441
0.0177251
0.0177063
0.0176876
0.017669
0.0176506
0.0176324
0.0176143
0.0175963
0.0175786
0.0175609
0.0175435
0.0175262
0.017509
0.017492
0.0174752
0.0174586
0.0174421
0.0174258
0.0174096
0.0173937
0.0173778
0.0173622
0.0173467
0.0173313
0.0173161
0.0173011
0.0172862
0.0172715
0.017257
0.0172426
0.0172283
0.0172142
0.0172003
0.0171865
0.0171729
0.0171594
0.017146
0.0171328
0.0171198
0.0171069
0.0170941
0.0170815
0.017069
0.0170566
0.0170444
0.0170323
0.0170204
0.0170086
0.0169969
0.0169853
0.0169739
0.0169626
0.0169514
0.0169404
0.0169295
0.0169187
0.016908
0.0168974
0.016887
0.0168766
0.0168664
0.0168563
0.0168464
0.0168365
0.0168267
0.0168171
0.0168076
0.0167981
0.0167888
0.0167796
0.0167705
0.0167615
0.0167526
0.0167438
0.0167351
0.0167265
0.016718
0.0167096
0.0167013
0.016693
0.0166849
0.0166769
0.016669
0.0166612
0.0166535
0.0166458
0.0166383
0.0166309
0.0166235
0.0166162
0.0166091
0.016602
0.016595
0.016588
0.0165812
0.0165743
0.0165676
0.0165609
0.0165543
0.0165477
0.0165413
0.0165347
0.0165284
0.016522
0.0165159
0.0165097
0.0165036
0.0164979
0.0164914
0.0164866
0.0164796
0.0164757
0.0164685
0.0164649
0.0164582
0.0164548
0.0164474
0.00384396
0.00383107
0.00376468
0.00368005
0.00368616
0.0037694
0.00398467
0.00442365
0.00502133
0.0058464
0.00679615
0.00785339
0.00892842
0.00997706
0.0109525
0.0118583
0.0126703
0.0133991
0.0140403
0.0146137
0.0151131
0.0155555
0.0159435
0.0162862
0.0165883
0.0168534
0.0170868
0.0172938
0.0174753
0.0176373
0.0177792
0.0179049
0.0180158
0.0181141
0.0182002
0.0182767
0.0183434
0.0184027
0.0184539
0.0184993
0.0185381
0.0185719
0.0186007
0.018625
0.0186457
0.0186625
0.0186763
0.0186873
0.0186955
0.0187016
0.0187055
0.0187076
0.0187074
0.0187062
0.0187035
0.0186993
0.0186939
0.0186876
0.0186802
0.018672
0.018663
0.0186532
0.0186428
0.0186318
0.0186201
0.0186082
0.0185958
0.018583
0.0185698
0.0185564
0.0185426
0.0185287
0.0185145
0.0185002
0.0184857
0.018471
0.0184563
0.0184415
0.0184266
0.0184116
0.0183967
0.0183816
0.0183666
0.0183516
0.0183365
0.0183215
0.0183065
0.0182916
0.0182767
0.0182618
0.018247
0.0182322
0.0182176
0.0182029
0.0181884
0.018174
0.0181596
0.0181453
0.0181311
0.018117
0.018103
0.0180892
0.0180754
0.0180617
0.0180481
0.0180346
0.0180212
0.018008
0.0179948
0.0179818
0.0179688
0.017956
0.0179433
0.0179307
0.0179182
0.0179058
0.0178936
0.0178814
0.0178694
0.0178575
0.0178457
0.017834
0.0178224
0.0178109
0.0177996
0.0177883
0.0177772
0.0177662
0.0177553
0.0177445
0.0177338
0.0177232
0.0177127
0.0177023
0.017692
0.0176819
0.0176718
0.0176618
0.017652
0.0176422
0.0176326
0.017623
0.0176136
0.0176043
0.017595
0.0175859
0.0175768
0.0175678
0.017559
0.0175502
0.0175416
0.017533
0.0175245
0.0175161
0.0175078
0.0174996
0.0174915
0.0174834
0.0174755
0.0174676
0.0174599
0.0174522
0.0174446
0.0174371
0.0174297
0.0174224
0.0174151
0.017408
0.0174009
0.017394
0.0173871
0.0173803
0.0173735
0.0173669
0.0173604
0.0173539
0.0173474
0.0173411
0.0173347
0.0173285
0.0173222
0.0173162
0.01731
0.0173042
0.017298
0.0172923
0.0172862
0.0172807
0.0172748
0.0172693
0.0172639
0.0172582
0.0172535
0.0172474
0.0172437
0.0172373
0.017234
0.0172281
0.0172252
0.0172191
0.00384402
0.00388398
0.00384175
0.00374998
0.00368663
0.0036398
0.00365555
0.0037352
0.00391518
0.00425485
0.00472794
0.00536259
0.00612735
0.00699772
0.00791546
0.00885378
0.00976609
0.010637
0.0114431
0.0121891
0.0128635
0.013475
0.0140241
0.0145183
0.0149617
0.0153581
0.0157131
0.0160326
0.0163178
0.0165753
0.0168048
0.0170117
0.0171974
0.0173647
0.0175149
0.0176508
0.0177722
0.0178822
0.0179805
0.0180699
0.0181498
0.0182219
0.0182868
0.0183447
0.018397
0.0184436
0.0184855
0.0185228
0.0185559
0.0185856
0.0186117
0.0186349
0.0186548
0.0186724
0.0186876
0.0187006
0.0187115
0.0187208
0.0187282
0.0187341
0.0187385
0.0187416
0.0187434
0.0187441
0.0187438
0.0187426
0.0187405
0.0187376
0.0187339
0.0187296
0.0187246
0.0187191
0.0187131
0.0187065
0.0186995
0.0186922
0.0186844
0.0186763
0.0186679
0.0186593
0.0186503
0.0186412
0.0186318
0.0186223
0.0186125
0.0186027
0.0185926
0.0185825
0.0185723
0.0185619
0.0185515
0.018541
0.0185305
0.0185199
0.0185093
0.0184986
0.0184879
0.0184772
0.0184665
0.0184558
0.0184451
0.0184345
0.0184238
0.0184132
0.0184025
0.018392
0.0183814
0.0183709
0.0183604
0.01835
0.0183396
0.0183293
0.018319
0.0183088
0.0182986
0.0182885
0.0182785
0.0182685
0.0182586
0.0182487
0.018239
0.0182292
0.0182196
0.01821
0.0182005
0.0181911
0.0181818
0.0181725
0.0181633
0.0181541
0.0181451
0.0181361
0.0181272
0.0181183
0.0181096
0.0181009
0.0180923
0.0180838
0.0180753
0.018067
0.0180587
0.0180504
0.0180423
0.0180342
0.0180262
0.0180183
0.0180105
0.0180027
0.017995
0.0179874
0.0179799
0.0179724
0.017965
0.0179577
0.0179505
0.0179433
0.0179362
0.0179292
0.0179222
0.0179153
0.0179085
0.0179018
0.0178951
0.0178886
0.017882
0.0178756
0.0178693
0.017863
0.0178568
0.0178507
0.0178446
0.0178386
0.0178327
0.0178269
0.0178211
0.0178154
0.0178097
0.0178041
0.0177985
0.0177931
0.0177875
0.0177822
0.0177767
0.0177716
0.0177661
0.0177611
0.0177557
0.0177509
0.0177457
0.017741
0.0177361
0.0177312
0.017727
0.0177219
0.0177185
0.0177132
0.0177104
0.0177055
0.0177032
0.0176986
0.00383059
0.00390648
0.00388325
0.00382042
0.00374803
0.00367323
0.00362234
0.00359142
0.00360448
0.00366412
0.00380044
0.00404769
0.00439852
0.00487547
0.00546162
0.00615108
0.00690948
0.00771355
0.00852569
0.00932924
0.0100995
0.0108289
0.0115088
0.0121384
0.0127175
0.0132477
0.0137305
0.0141719
0.0145722
0.0149382
0.0152696
0.0155715
0.0158459
0.0160962
0.0163237
0.016532
0.0167206
0.0168936
0.0170508
0.0171952
0.0173267
0.0174474
0.0175579
0.0176585
0.0177509
0.0178354
0.0179129
0.0179838
0.0180487
0.0181084
0.0181628
0.0182128
0.0182583
0.0183
0.0183381
0.0183729
0.0184045
0.0184334
0.0184596
0.0184833
0.0185048
0.0185242
0.0185416
0.0185573
0.0185712
0.0185837
0.0185948
0.0186045
0.0186129
0.0186202
0.0186264
0.0186317
0.018636
0.0186394
0.018642
0.0186439
0.0186451
0.0186456
0.0186455
0.0186449
0.0186438
0.0186421
0.01864
0.0186375
0.0186346
0.0186313
0.0186277
0.0186237
0.0186195
0.018615
0.0186102
0.0186053
0.0186
0.0185946
0.018589
0.0185832
0.0185773
0.0185712
0.018565
0.0185587
0.0185523
0.0185457
0.0185391
0.0185324
0.0185256
0.0185188
0.0185119
0.0185049
0.0184979
0.0184909
0.0184838
0.0184767
0.0184696
0.0184624
0.0184553
0.0184481
0.0184409
0.0184338
0.0184266
0.0184194
0.0184123
0.0184051
0.018398
0.0183909
0.0183838
0.0183768
0.0183697
0.0183627
0.0183557
0.0183488
0.0183418
0.0183349
0.0183281
0.0183213
0.0183145
0.0183077
0.018301
0.0182943
0.0182877
0.0182811
0.0182746
0.0182681
0.0182617
0.0182553
0.0182489
0.0182426
0.0182363
0.0182301
0.018224
0.0182179
0.0182118
0.0182058
0.0181998
0.0181939
0.018188
0.0181822
0.0181765
0.0181707
0.0181651
0.0181595
0.0181539
0.0181484
0.018143
0.0181376
0.0181323
0.018127
0.0181218
0.0181166
0.0181115
0.0181065
0.0181015
0.0180966
0.0180917
0.018087
0.0180822
0.0180775
0.0180728
0.0180682
0.0180635
0.0180591
0.0180545
0.0180502
0.0180456
0.0180414
0.0180368
0.0180327
0.0180282
0.0180243
0.0180199
0.0180162
0.018012
0.0180082
0.0180047
0.0180007
0.0179979
0.0179937
0.0179916
0.0179878
0.0179861
0.0179832
0.00381068
0.00390555
0.00389799
0.00386151
0.00380191
0.00373311
0.00366913
0.00360861
0.00356657
0.00353701
0.00354421
0.00358251
0.00367381
0.00384675
0.00409405
0.00443564
0.00486857
0.00539255
0.0059904
0.0066479
0.00733976
0.00804701
0.00874975
0.00943497
0.0100922
0.0107164
0.0113013
0.0118492
0.0123567
0.0128287
0.0132637
0.0136653
0.0140352
0.0143764
0.0146901
0.0149801
0.015246
0.0154917
0.0157175
0.0159265
0.0161189
0.0162971
0.0164617
0.0166133
0.0167539
0.0168838
0.0170043
0.0171158
0.0172192
0.0173153
0.0174042
0.0174869
0.0175636
0.0176347
0.0177009
0.0177624
0.0178195
0.0178727
0.017922
0.0179678
0.0180104
0.01805
0.0180867
0.0181209
0.0181525
0.018182
0.0182093
0.0182346
0.018258
0.0182797
0.0182998
0.0183183
0.0183354
0.0183512
0.0183657
0.0183791
0.0183913
0.0184025
0.0184127
0.018422
0.0184304
0.0184381
0.0184449
0.0184511
0.0184565
0.0184614
0.0184656
0.0184693
0.0184725
0.0184751
0.0184773
0.0184791
0.0184804
0.0184814
0.0184819
0.0184822
0.0184821
0.0184817
0.018481
0.0184801
0.0184789
0.0184775
0.0184758
0.018474
0.0184719
0.0184697
0.0184672
0.0184647
0.0184619
0.0184591
0.0184561
0.0184529
0.0184497
0.0184463
0.0184429
0.0184393
0.0184357
0.018432
0.0184282
0.0184244
0.0184204
0.0184165
0.0184125
0.0184084
0.0184043
0.0184001
0.0183959
0.0183917
0.0183875
0.0183832
0.0183789
0.0183746
0.0183702
0.0183659
0.0183615
0.0183572
0.0183528
0.0183484
0.0183441
0.0183397
0.0183353
0.0183309
0.0183266
0.0183222
0.0183179
0.0183136
0.0183093
0.018305
0.0183007
0.0182964
0.0182922
0.0182879
0.0182837
0.0182795
0.0182754
0.0182712
0.0182671
0.018263
0.0182589
0.0182549
0.0182509
0.0182469
0.018243
0.018239
0.0182351
0.0182313
0.0182275
0.0182237
0.01822
0.0182163
0.0182126
0.018209
0.0182054
0.018202
0.0181984
0.018195
0.0181915
0.0181882
0.0181846
0.0181814
0.0181779
0.0181748
0.0181713
0.0181682
0.0181647
0.0181618
0.0181583
0.0181555
0.0181522
0.0181495
0.0181464
0.0181437
0.0181411
0.0181383
0.0181362
0.0181335
0.0181321
0.0181296
0.0181287
0.0181276
0.00379119
0.00388824
0.00389569
0.00387648
0.00383421
0.00377755
0.00372032
0.00365881
0.00360394
0.00355036
0.00351389
0.00348274
0.00348298
0.00350327
0.00355776
0.00366928
0.00383665
0.00407019
0.00437572
0.00475569
0.00520487
0.00571607
0.00627487
0.00686726
0.00747686
0.00809234
0.00869881
0.00929097
0.00985929
0.0104029
0.0109173
0.0114025
0.0118575
0.012284
0.0126817
0.0130539
0.0133996
0.013722
0.0140216
0.014301
0.0145607
0.0148028
0.0150285
0.0152381
0.0154338
0.015616
0.0157863
0.0159449
0.0160933
0.0162319
0.0163614
0.0164826
0.016596
0.0167021
0.0168016
0.0168949
0.0169822
0.0170643
0.0171412
0.0172134
0.0172812
0.0173449
0.0174047
0.017461
0.0175138
0.0175636
0.0176104
0.0176544
0.0176958
0.0177348
0.0177715
0.017806
0.0178385
0.0178691
0.0178979
0.017925
0.0179505
0.0179745
0.0179971
0.0180183
0.0180383
0.0180571
0.0180748
0.0180914
0.018107
0.0181216
0.0181353
0.0181482
0.0181603
0.0181716
0.0181822
0.0181921
0.0182014
0.01821
0.0182181
0.0182256
0.0182325
0.018239
0.018245
0.0182506
0.0182557
0.0182604
0.0182648
0.0182688
0.0182724
0.0182757
0.0182787
0.0182814
0.0182838
0.0182859
0.0182878
0.0182895
0.0182909
0.0182921
0.0182931
0.0182939
0.0182945
0.018295
0.0182953
0.0182954
0.0182953
0.0182952
0.0182949
0.0182944
0.0182939
0.0182932
0.0182924
0.0182916
0.0182906
0.0182895
0.0182884
0.0182871
0.0182858
0.0182844
0.018283
0.0182814
0.0182799
0.0182782
0.0182766
0.0182748
0.018273
0.0182712
0.0182694
0.0182675
0.0182655
0.0182636
0.0182616
0.0182596
0.0182575
0.0182555
0.0182534
0.0182513
0.0182492
0.0182471
0.0182449
0.0182428
0.0182406
0.0182384
0.0182363
0.0182341
0.0182319
0.0182297
0.0182276
0.0182254
0.0182232
0.0182211
0.0182189
0.0182168
0.0182147
0.0182126
0.0182105
0.0182085
0.0182064
0.0182044
0.0182024
0.0182005
0.0181984
0.0181965
0.0181944
0.0181925
0.0181904
0.0181886
0.0181865
0.0181848
0.0181826
0.0181809
0.0181788
0.0181772
0.0181751
0.0181737
0.0181718
0.0181704
0.0181688
0.0181675
0.0181663
0.018165
0.0181645
0.0181635
0.0181635
0.0181643
0.00377572
0.0038595
0.00388215
0.00387265
0.00384672
0.00380341
0.00375602
0.00370202
0.00365015
0.00359464
0.00354625
0.00349821
0.00346293
0.00343526
0.00342196
0.00343069
0.00345976
0.00352399
0.0036313
0.00378311
0.00398775
0.00425056
0.00457049
0.00494705
0.00537302
0.00584289
0.00634314
0.006866
0.00739811
0.00793274
0.0084607
0.00897706
0.00947614
0.0099564
0.0104144
0.0108511
0.0112642
0.011655
0.0120231
0.0123702
0.0126965
0.0130033
0.013292
0.0135626
0.013817
0.0140557
0.0142802
0.0144908
0.0146889
0.0148752
0.0150502
0.0152149
0.0153701
0.0155161
0.0156537
0.0157834
0.0159056
0.0160211
0.0161299
0.0162328
0.0163298
0.0164217
0.0165084
0.0165905
0.0166682
0.0167417
0.0168115
0.0168774
0.01694
0.0169993
0.0170555
0.0171088
0.0171595
0.0172075
0.0172532
0.0172965
0.0173377
0.0173769
0.0174141
0.0174494
0.0174831
0.0175151
0.0175455
0.0175745
0.017602
0.0176282
0.0176532
0.0176769
0.0176996
0.0177211
0.0177416
0.0177612
0.0177798
0.0177975
0.0178143
0.0178304
0.0178457
0.0178603
0.0178742
0.0178874
0.0179
0.017912
0.0179234
0.0179343
0.0179446
0.0179545
0.0179638
0.0179728
0.0179812
0.0179893
0.017997
0.0180043
0.0180112
0.0180178
0.018024
0.01803
0.0180356
0.018041
0.018046
0.0180508
0.0180554
0.0180597
0.0180638
0.0180676
0.0180713
0.0180747
0.018078
0.018081
0.0180839
0.0180867
0.0180892
0.0180916
0.0180939
0.018096
0.0180979
0.0180998
0.0181015
0.0181031
0.0181046
0.018106
0.0181073
0.0181084
0.0181095
0.0181105
0.0181114
0.0181122
0.018113
0.0181137
0.0181143
0.0181148
0.0181152
0.0181157
0.018116
0.0181163
0.0181165
0.0181167
0.0181169
0.018117
0.018117
0.018117
0.018117
0.0181169
0.0181169
0.0181167
0.0181166
0.0181164
0.0181163
0.0181161
0.0181158
0.0181156
0.0181154
0.0181151
0.0181148
0.0181146
0.0181143
0.0181141
0.0181137
0.0181135
0.018113
0.0181128
0.0181123
0.0181121
0.0181115
0.0181113
0.0181107
0.0181105
0.0181099
0.0181097
0.0181092
0.0181091
0.0181087
0.0181087
0.0181084
0.0181086
0.0181086
0.0181089
0.0181094
0.0181101
0.018111
0.0181139
0.00376521
0.00382737
0.00385898
0.00385674
0.00384319
0.00381327
0.00377564
0.00373068
0.00368523
0.00363539
0.00358782
0.00353895
0.00349335
0.00345223
0.00341578
0.00338954
0.00336807
0.00336762
0.003379
0.00340954
0.00347189
0.00356663
0.00369596
0.00386786
0.00408344
0.00434594
0.00465245
0.00500248
0.00538866
0.00580621
0.0062464
0.00670286
0.00716673
0.00763301
0.0080948
0.00854929
0.00899165
0.00942038
0.00983293
0.0102287
0.0106073
0.0109679
0.0113117
0.0116378
0.0119474
0.0122407
0.0125187
0.0127817
0.0130308
0.0132666
0.0134897
0.0137008
0.0139007
0.0140899
0.0142691
0.0144389
0.0145997
0.0147523
0.0148968
0.015034
0.015164
0.0152876
0.0154049
0.0155164
0.0156223
0.015723
0.0158189
0.01591
0.0159968
0.0160795
0.0161582
0.0162333
0.0163048
0.0163731
0.0164382
0.0165004
0.0165597
0.0166164
0.0166706
0.0167223
0.0167718
0.0168192
0.0168644
0.0169078
0.0169492
0.016989
0.017027
0.0170634
0.0170983
0.0171318
0.0171638
0.0171946
0.0172241
0.0172524
0.0172795
0.0173056
0.0173306
0.0173547
0.0173777
0.0173999
0.0174212
0.0174417
0.0174614
0.0174803
0.0174984
0.0175159
0.0175327
0.0175489
0.0175645
0.0175795
0.0175939
0.0176077
0.0176211
0.0176339
0.0176463
0.0176583
0.0176697
0.0176808
0.0176914
0.0177017
0.0177116
0.0177211
0.0177303
0.0177392
0.0177477
0.0177559
0.0177639
0.0177715
0.0177789
0.017786
0.0177929
0.0177995
0.0178059
0.0178121
0.0178181
0.0178238
0.0178294
0.0178347
0.0178399
0.0178449
0.0178497
0.0178544
0.0178589
0.0178632
0.0178674
0.0178715
0.0178754
0.0178792
0.0178828
0.0178864
0.0178898
0.0178931
0.0178963
0.0178994
0.0179024
0.0179053
0.0179081
0.0179108
0.0179134
0.017916
0.0179185
0.0179209
0.0179232
0.0179255
0.0179276
0.0179298
0.0179319
0.0179339
0.0179359
0.0179378
0.0179397
0.0179416
0.0179433
0.0179451
0.0179468
0.0179486
0.0179502
0.0179519
0.0179533
0.017955
0.0179563
0.0179579
0.0179592
0.0179607
0.0179619
0.0179634
0.0179645
0.017966
0.0179671
0.0179688
0.0179698
0.0179716
0.0179727
0.0179746
0.0179759
0.0179781
0.0179797
0.0179823
0.0179843
0.0179895
0.0037587
0.00379754
0.00382986
0.00383367
0.00382763
0.00380974
0.00378127
0.00374522
0.00370686
0.00366418
0.00362109
0.00357652
0.00353167
0.00348905
0.00344605
0.00340875
0.00337325
0.0033454
0.00332452
0.00330953
0.00331132
0.00332335
0.0033517
0.00340577
0.00348334
0.0035888
0.00372591
0.00389855
0.00410626
0.00435082
0.00463004
0.00494253
0.00528304
0.00564794
0.00603085
0.00642738
0.0068314
0.00723874
0.00764484
0.00804619
0.0084406
0.00882494
0.00919881
0.00955996
0.00990844
0.0102431
0.0105645
0.0108719
0.011166
0.0114469
0.0117151
0.0119707
0.0122145
0.0124467
0.0126681
0.012879
0.0130797
0.0132713
0.0134535
0.0136273
0.0137928
0.0139507
0.0141012
0.0142447
0.0143817
0.0145124
0.0146373
0.0147564
0.0148702
0.014979
0.015083
0.0151825
0.0152776
0.0153687
0.0154558
0.0155393
0.0156193
0.0156959
0.0157694
0.0158398
0.0159074
0.0159722
0.0160345
0.0160943
0.0161516
0.0162068
0.0162598
0.0163108
0.0163598
0.0164069
0.0164523
0.0164959
0.016538
0.0165785
0.0166175
0.016655
0.0166912
0.0167262
0.0167598
0.0167923
0.0168237
0.0168539
0.0168831
0.0169113
0.0169385
0.0169648
0.0169902
0.0170147
0.0170385
0.0170614
0.0170836
0.017105
0.0171258
0.0171459
0.0171653
0.0171842
0.0172024
0.01722
0.0172371
0.0172537
0.0172698
0.0172853
0.0173004
0.017315
0.0173292
0.017343
0.0173563
0.0173692
0.0173818
0.017394
0.0174059
0.0174174
0.0174285
0.0174394
0.0174499
0.0174602
0.0174701
0.0174798
0.0174892
0.0174984
0.0175073
0.0175159
0.0175244
0.0175326
0.0175406
0.0175483
0.0175559
0.0175633
0.0175705
0.0175775
0.0175843
0.017591
0.0175974
0.0176038
0.0176099
0.017616
0.0176218
0.0176276
0.0176332
0.0176386
0.017644
0.0176492
0.0176543
0.0176593
0.0176641
0.0176689
0.0176736
0.0176782
0.0176827
0.0176871
0.0176914
0.0176957
0.0176998
0.017704
0.017708
0.017712
0.0177158
0.0177197
0.0177233
0.0177271
0.0177306
0.0177342
0.0177376
0.0177412
0.0177443
0.0177478
0.0177508
0.0177543
0.0177572
0.0177608
0.0177636
0.0177673
0.0177701
0.017774
0.0177768
0.017781
0.0177839
0.0177885
0.0177918
0.0177995
0.00375413
0.00377374
0.0037992
0.0038068
0.00380454
0.00379517
0.00377558
0.00374749
0.00371605
0.00368045
0.00364297
0.00360383
0.00356301
0.00352292
0.00348152
0.00344244
0.00340354
0.00336712
0.0033351
0.00330541
0.00328192
0.00326444
0.00325282
0.00325457
0.00326447
0.00328734
0.00332965
0.00339084
0.00347213
0.00357832
0.00371063
0.00387128
0.00406022
0.00427828
0.00452393
0.0047957
0.00509046
0.00540501
0.00573567
0.00607801
0.00642909
0.00678418
0.00714121
0.00749642
0.0078482
0.00819397
0.00853273
0.00886278
0.00918364
0.00949443
0.00979498
0.0100849
0.0103642
0.0106329
0.0108911
0.0111391
0.0113769
0.0116052
0.0118239
0.0120336
0.0122344
0.0124269
0.0126112
0.0127878
0.012957
0.0131192
0.0132746
0.0134235
0.0135663
0.0137031
0.0138344
0.0139604
0.0140812
0.0141972
0.0143086
0.0144155
0.0145183
0.014617
0.0147118
0.0148031
0.0148908
0.0149752
0.0150565
0.0151347
0.0152099
0.0152825
0.0153523
0.0154197
0.0154846
0.0155472
0.0156076
0.0156659
0.0157221
0.0157764
0.0158288
0.0158795
0.0159284
0.0159757
0.0160214
0.0160656
0.0161084
0.0161498
0.0161898
0.0162286
0.0162661
0.0163024
0.0163376
0.0163717
0.0164048
0.0164368
0.0164679
0.016498
0.0165272
0.0165556
0.0165831
0.0166098
0.0166358
0.016661
0.0166854
0.0167092
0.0167323
0.0167547
0.0167765
0.0167978
0.0168184
0.0168385
0.016858
0.016877
0.0168955
0.0169135
0.016931
0.0169481
0.0169648
0.016981
0.0169967
0.0170121
0.0170271
0.0170418
0.017056
0.0170699
0.0170835
0.0170968
0.0171097
0.0171223
0.0171346
0.0171467
0.0171584
0.0171699
0.0171811
0.0171921
0.0172028
0.0172132
0.0172235
0.0172335
0.0172433
0.0172529
0.0172622
0.0172714
0.0172804
0.0172892
0.0172978
0.0173062
0.0173145
0.0173226
0.0173305
0.0173383
0.017346
0.0173535
0.0173608
0.0173681
0.0173752
0.0173822
0.017389
0.0173958
0.0174024
0.017409
0.0174154
0.0174218
0.0174279
0.0174341
0.01744
0.017446
0.0174517
0.0174576
0.017463
0.0174688
0.017474
0.0174797
0.0174847
0.0174904
0.0174953
0.0175011
0.0175058
0.0175118
0.0175164
0.0175227
0.0175272
0.0175342
0.0175387
0.0175493
0.00375062
0.00375654
0.00377091
0.00377849
0.00377797
0.00377302
0.00376072
0.0037398
0.00371456
0.00368542
0.00365368
0.00362002
0.00358418
0.00354804
0.00351037
0.00347314
0.00343583
0.00339877
0.00336375
0.00332933
0.00329754
0.00326949
0.00324372
0.003223
0.00320776
0.00319647
0.00319693
0.00320336
0.00321916
0.00325016
0.00329511
0.00335576
0.00343404
0.00353255
0.00365238
0.00379455
0.00395967
0.00414771
0.00435841
0.00458984
0.00484102
0.00510867
0.00539115
0.00568485
0.00598769
0.00629635
0.00660878
0.00692219
0.00723495
0.00754496
0.00785109
0.00815193
0.00844667
0.00873445
0.00901476
0.00928728
0.00955153
0.0098077
0.0100554
0.0102949
0.010526
0.0107491
0.0109641
0.0111714
0.0113711
0.0115634
0.0117486
0.0119269
0.0120986
0.0122639
0.0124229
0.0125761
0.0127236
0.0128656
0.0130024
0.0131341
0.013261
0.0133833
0.0135011
0.0136148
0.0137243
0.0138299
0.0139318
0.0140301
0.014125
0.0142166
0.014305
0.0143904
0.0144729
0.0145526
0.0146296
0.0147041
0.0147761
0.0148458
0.0149132