/*--------------------------------*- C++ -*----------------------------------*\
  =========                 |
  \\      /  F ield         | OpenFOAM: The Open Source CFD Toolbox
   \\    /   O peration     | Website:  https://openfoam.org
    \\  /    A nd           | Version:  12
     \\/     M anipulation  |
\*---------------------------------------------------------------------------*/
FoamFile
{
    format      ascii;
    class       volScalarField;
    location    "700";
    object      nut;
}
// * * * * * * * * * * * * * * * * * * * * * * * * * * * * * * * * * * * * * //

dimensions      [0 2 -1 0 0 0 0];

internalField   nonuniform List<scalar> 
20000
(
1.76054e-06
6.61327e-07
7.32545e-07
9.77712e-07
1.13856e-06
1.26636e-06
1.39334e-06
1.52826e-06
1.64014e-06
1.74274e-06
1.81156e-06
1.88663e-06
1.93487e-06
1.98293e-06
2.02384e-06
2.06127e-06
2.08976e-06
2.11441e-06
2.13396e-06
2.15178e-06
2.16519e-06
2.17646e-06
2.18529e-06
2.19229e-06
2.19819e-06
2.20205e-06
2.20487e-06
2.20658e-06
2.20702e-06
2.20678e-06
2.20605e-06
2.20448e-06
2.20228e-06
2.19974e-06
2.19666e-06
2.19328e-06
2.18974e-06
2.18589e-06
2.18167e-06
2.17744e-06
2.1729e-06
2.16831e-06
2.16353e-06
2.15869e-06
2.1538e-06
2.14882e-06
2.14375e-06
2.1387e-06
2.13356e-06
2.12848e-06
2.12336e-06
2.11828e-06
2.11313e-06
2.10803e-06
2.10297e-06
2.09792e-06
2.09289e-06
2.08789e-06
2.08294e-06
2.07802e-06
2.07313e-06
2.06829e-06
2.06347e-06
2.05872e-06
2.05398e-06
2.04932e-06
2.0447e-06
2.04013e-06
2.0356e-06
2.03113e-06
2.0267e-06
2.02233e-06
2.018e-06
2.01372e-06
2.00949e-06
2.00531e-06
2.00119e-06
1.99711e-06
1.99308e-06
1.9891e-06
1.98518e-06
1.9813e-06
1.97747e-06
1.97368e-06
1.96994e-06
1.96625e-06
1.96261e-06
1.95901e-06
1.95546e-06
1.95195e-06
1.94849e-06
1.94507e-06
1.9417e-06
1.93836e-06
1.93507e-06
1.93183e-06
1.92862e-06
1.92545e-06
1.92233e-06
1.91924e-06
1.9162e-06
1.91319e-06
1.91022e-06
1.90729e-06
1.90439e-06
1.90153e-06
1.89871e-06
1.89593e-06
1.89317e-06
1.89046e-06
1.88778e-06
1.88513e-06
1.88251e-06
1.87993e-06
1.87738e-06
1.87487e-06
1.87238e-06
1.86993e-06
1.8675e-06
1.86511e-06
1.86274e-06
1.86041e-06
1.8581e-06
1.85583e-06
1.85358e-06
1.85136e-06
1.84917e-06
1.847e-06
1.84486e-06
1.84275e-06
1.84066e-06
1.8386e-06
1.83657e-06
1.83455e-06
1.83257e-06
1.8306e-06
1.82867e-06
1.82675e-06
1.82486e-06
1.82299e-06
1.82115e-06
1.81932e-06
1.81752e-06
1.81574e-06
1.81399e-06
1.81225e-06
1.81053e-06
1.80884e-06
1.80717e-06
1.80551e-06
1.80388e-06
1.80226e-06
1.80067e-06
1.79909e-06
1.79754e-06
1.796e-06
1.79448e-06
1.79298e-06
1.7915e-06
1.79003e-06
1.78858e-06
1.78715e-06
1.78574e-06
1.78435e-06
1.78297e-06
1.78161e-06
1.78027e-06
1.77894e-06
1.77763e-06
1.77634e-06
1.77506e-06
1.7738e-06
1.77255e-06
1.77133e-06
1.77011e-06
1.76891e-06
1.76771e-06
1.76653e-06
1.76536e-06
1.7642e-06
1.76306e-06
1.76192e-06
1.76081e-06
1.75967e-06
1.75859e-06
1.75745e-06
1.75642e-06
1.75528e-06
1.75432e-06
1.75312e-06
1.75228e-06
1.75098e-06
1.75031e-06
1.74889e-06
1.74833e-06
1.74693e-06
1.74636e-06
1.74493e-06
1.74448e-06
1.74224e-06
3.0855e-05
2.66403e-05
2.94447e-05
3.91757e-05
4.70037e-05
5.46574e-05
6.26568e-05
7.10228e-05
7.83489e-05
8.51925e-05
9.04036e-05
9.59361e-05
9.99182e-05
0.000103959
0.000107526
0.000110816
0.00011359
0.0001161
0.000118293
0.000120327
0.000122078
0.000123666
0.000125077
0.000126349
0.000127512
0.000128528
0.000129454
0.000130283
0.000131014
0.000131675
0.000132281
0.000132812
0.000133287
0.000133717
0.000134096
0.000134436
0.000134748
0.000135021
0.000135258
0.000135476
0.000135661
0.000135828
0.000135969
0.000136093
0.000136201
0.000136291
0.000136364
0.000136427
0.000136474
0.000136514
0.000136541
0.000136561
0.000136567
0.000136568
0.000136563
0.00013655
0.00013653
0.000136505
0.000136475
0.00013644
0.0001364
0.000136356
0.000136309
0.000136258
0.000136203
0.000136147
0.000136087
0.000136026
0.000135962
0.000135896
0.000135828
0.000135759
0.000135688
0.000135616
0.000135543
0.000135469
0.000135394
0.000135318
0.000135242
0.000135164
0.000135087
0.000135009
0.000134931
0.000134852
0.000134773
0.000134694
0.000134615
0.000134536
0.000134457
0.000134378
0.000134299
0.00013422
0.000134142
0.000134063
0.000133985
0.000133907
0.000133829
0.000133752
0.000133675
0.000133598
0.000133522
0.000133446
0.000133371
0.000133296
0.000133221
0.000133147
0.000133074
0.000133001
0.000132928
0.000132856
0.000132784
0.000132713
0.000132643
0.000132573
0.000132503
0.000132434
0.000132366
0.000132298
0.000132231
0.000132164
0.000132098
0.000132033
0.000131968
0.000131903
0.000131839
0.000131776
0.000131714
0.000131651
0.00013159
0.000131529
0.000131468
0.000131408
0.000131349
0.00013129
0.000131232
0.000131174
0.000131117
0.000131061
0.000131005
0.000130949
0.000130895
0.00013084
0.000130787
0.000130733
0.000130681
0.000130628
0.000130577
0.000130526
0.000130475
0.000130425
0.000130376
0.000130327
0.000130278
0.00013023
0.000130183
0.000130136
0.000130089
0.000130043
0.000129998
0.000129953
0.000129908
0.000129864
0.000129821
0.000129778
0.000129735
0.000129694
0.000129652
0.000129611
0.000129571
0.000129531
0.000129491
0.000129453
0.000129414
0.000129376
0.000129339
0.000129302
0.000129265
0.000129228
0.000129192
0.000129156
0.00012912
0.000129086
0.00012905
0.000129016
0.000128981
0.000128947
0.000128914
0.00012888
0.000128849
0.000128813
0.000128787
0.000128746
0.000128729
0.000128681
0.000128671
0.000128623
0.000128613
0.000128566
0.000128563
0.00012846
0.00018461
6.36371e-05
4.7432e-05
5.26752e-05
6.4713e-05
8.11508e-05
9.89662e-05
0.000117441
0.000134281
0.000150413
0.000163997
0.000177853
0.000189169
0.000200384
0.000210632
0.000220251
0.000228701
0.000236591
0.000243729
0.000250427
0.00025642
0.000262001
0.000267112
0.00027185
0.00027626
0.000280293
0.000284028
0.000287498
0.00029069
0.000293667
0.000296461
0.000299031
0.000301422
0.000303664
0.000305743
0.00030769
0.000309534
0.000311244
0.000312839
0.00031435
0.000315755
0.000317084
0.000318325
0.000319494
0.0003206
0.000321635
0.000322609
0.000323532
0.000324396
0.00032522
0.000325994
0.000326731
0.000327417
0.000328072
0.000328693
0.00032928
0.000329834
0.00033036
0.000330859
0.000331331
0.000331779
0.000332204
0.000332606
0.000332989
0.000333349
0.000333694
0.00033402
0.000334332
0.000334626
0.000334907
0.000335172
0.000335425
0.000335665
0.000335893
0.00033611
0.000336317
0.000336513
0.0003367
0.000336877
0.000337045
0.000337206
0.000337358
0.000337503
0.00033764
0.000337771
0.000337895
0.000338013
0.000338125
0.000338232
0.000338333
0.000338429
0.00033852
0.000338607
0.000338689
0.000338767
0.000338841
0.00033891
0.000338976
0.00033904
0.000339099
0.000339155
0.000339208
0.000339259
0.000339306
0.000339351
0.000339393
0.000339433
0.000339471
0.000339506
0.000339539
0.00033957
0.0003396
0.000339627
0.000339653
0.000339677
0.0003397
0.000339721
0.00033974
0.000339758
0.000339775
0.00033979
0.000339805
0.000339818
0.00033983
0.000339841
0.000339851
0.00033986
0.000339869
0.000339876
0.000339883
0.000339888
0.000339893
0.000339898
0.000339901
0.000339904
0.000339907
0.000339909
0.00033991
0.000339911
0.000339911
0.000339911
0.00033991
0.00033991
0.000339908
0.000339907
0.000339905
0.000339902
0.0003399
0.000339897
0.000339894
0.000339891
0.000339887
0.000339884
0.00033988
0.000339876
0.000339872
0.000339867
0.000339863
0.000339858
0.000339854
0.000339849
0.000339844
0.000339839
0.000339835
0.000339831
0.000339826
0.000339822
0.000339818
0.000339814
0.00033981
0.000339806
0.000339803
0.000339799
0.000339797
0.000339793
0.000339791
0.000339785
0.000339784
0.000339778
0.000339777
0.00033977
0.000339771
0.000339762
0.000339764
0.000339753
0.000339756
0.000339745
0.000339751
0.000339741
0.000339747
0.000339741
0.00033974
0.000339751
0.000339737
0.000339763
0.00033975
0.000339775
0.000339775
0.000339801
0.000339745
0.00074132
0.000184399
0.000105285
7.55327e-05
7.64293e-05
8.80938e-05
0.000104036
0.000124324
0.000145403
0.00016736
0.000187673
0.000208483
0.000227423
0.000245874
0.00026321
0.000279642
0.000294311
0.000308335
0.000321211
0.000333396
0.000344446
0.000354885
0.00036455
0.000373621
0.000382126
0.000390008
0.000397386
0.000404311
0.000410769
0.000416858
0.000422569
0.000427925
0.000432962
0.000437721
0.000442183
0.000446406
0.000450429
0.0004542
0.000457761
0.000461157
0.000464358
0.000467407
0.000470287
0.000473028
0.000475644
0.000478118
0.000480473
0.000482723
0.000484861
0.000486911
0.000488861
0.000490732
0.000492502
0.000494208
0.000495841
0.000497402
0.000498894
0.000500326
0.0005017
0.000503017
0.000504281
0.000505494
0.000506659
0.000507779
0.000508851
0.000509889
0.000510885
0.000511846
0.000512769
0.000513659
0.000514516
0.000515343
0.00051614
0.00051691
0.000517653
0.00051837
0.000519062
0.000519733
0.000520379
0.000521005
0.000521611
0.000522196
0.000522763
0.000523311
0.000523842
0.000524357
0.000524856
0.00052534
0.000525808
0.000526263
0.000526704
0.000527132
0.000527547
0.00052795
0.000528342
0.000528722
0.000529091
0.00052945
0.0005298
0.00053014
0.00053047
0.000530791
0.000531105
0.000531409
0.000531705
0.000531994
0.000532275
0.00053255
0.000532816
0.000533077
0.00053333
0.000533578
0.00053382
0.000534056
0.000534285
0.00053451
0.000534729
0.000534944
0.000535153
0.000535357
0.000535557
0.000535752
0.000535943
0.00053613
0.000536312
0.000536491
0.000536666
0.000536837
0.000537005
0.000537169
0.00053733
0.000537487
0.000537641
0.000537792
0.00053794
0.000538086
0.000538228
0.000538368
0.000538505
0.00053864
0.000538772
0.000538901
0.000539029
0.000539154
0.000539277
0.000539398
0.000539516
0.000539633
0.000539748
0.00053986
0.000539971
0.000540081
0.000540188
0.000540294
0.000540398
0.000540501
0.000540602
0.000540701
0.000540799
0.000540896
0.000540991
0.000541085
0.000541178
0.00054127
0.000541361
0.000541451
0.00054154
0.000541628
0.000541715
0.000541802
0.000541886
0.000541972
0.000542055
0.00054214
0.000542221
0.000542306
0.000542382
0.000542465
0.000542538
0.000542621
0.000542691
0.000542775
0.00054284
0.000542925
0.000542984
0.000543071
0.000543126
0.000543218
0.000543272
0.000543364
0.000543421
0.000543507
0.000543582
0.000543652
0.00054375
0.000543817
0.000543914
0.000544007
0.000544099
0.000544155
0.00150222
0.000491194
0.000263273
0.00015807
0.000116008
0.000103194
0.000105616
0.000117582
0.000134645
0.000157083
0.000180604
0.000205634
0.000230087
0.000253961
0.000276855
0.00029914
0.00031979
0.000339564
0.000358192
0.000375997
0.000392289
0.000408015
0.000422678
0.000436634
0.000449776
0.000462051
0.000473655
0.000484616
0.000494914
0.000504701
0.000513892
0.000522592
0.000530832
0.000538652
0.000546044
0.000553078
0.000559757
0.000566104
0.000572124
0.000577887
0.00058335
0.000588576
0.000593536
0.000598286
0.000602834
0.000607155
0.000611292
0.000615259
0.000619049
0.000622695
0.000626182
0.000629537
0.000632733
0.000635826
0.000638796
0.000641646
0.000644386
0.000647025
0.000649568
0.000652016
0.000654376
0.00065665
0.000658843
0.000660961
0.000662999
0.000664977
0.000666884
0.00066873
0.000670513
0.000672238
0.000673907
0.000675524
0.000677088
0.000678605
0.000680075
0.000681501
0.000682883
0.000684225
0.000685525
0.000686789
0.000688018
0.00068921
0.000690368
0.000691494
0.000692589
0.000693654
0.00069469
0.000695699
0.00069668
0.000697637
0.000698567
0.000699474
0.000700357
0.000701218
0.000702058
0.000702877
0.000703675
0.000704454
0.000705216
0.000705958
0.000706683
0.000707391
0.000708083
0.000708758
0.000709419
0.000710064
0.000710695
0.000711313
0.000711916
0.000712507
0.000713085
0.000713651
0.000714204
0.000714747
0.000715278
0.000715798
0.000716308
0.000716808
0.000717297
0.000717778
0.000718247
0.000718709
0.000719162
0.000719606
0.000720042
0.00072047
0.000720889
0.000721301
0.000721706
0.000722103
0.000722494
0.000722877
0.000723254
0.000723624
0.000723988
0.000724345
0.000724697
0.000725043
0.000725383
0.000725718
0.000726047
0.000726371
0.00072669
0.000727004
0.000727313
0.000727617
0.000727917
0.000728212
0.000728503
0.000728789
0.000729071
0.000729349
0.000729623
0.000729893
0.00073016
0.000730423
0.000730681
0.000730937
0.000731189
0.000731438
0.000731684
0.000731926
0.000732165
0.000732402
0.000732636
0.000732868
0.000733096
0.000733324
0.000733547
0.000733769
0.000733987
0.000734206
0.000734419
0.000734635
0.000734844
0.000735056
0.000735257
0.000735465
0.000735659
0.000735865
0.000736052
0.000736257
0.000736437
0.000736641
0.00073681
0.000737016
0.000737177
0.000737388
0.000737544
0.000737756
0.000737913
0.000738118
0.000738291
0.000738482
0.000738677
0.000738866
0.000739058
0.000739284
0.00073946
0.000739687
0.00202513
0.000999129
0.000588479
0.00035628
0.00024283
0.000176761
0.000145629
0.000134453
0.000134981
0.000145416
0.00016187
0.00018339
0.000207569
0.000233368
0.00025948
0.000285864
0.000311549
0.000336616
0.000360591
0.000383849
0.000405663
0.000426647
0.000446472
0.000465515
0.000483396
0.000500256
0.000516401
0.00053172
0.000546225
0.0005601
0.000573147
0.000585614
0.000597482
0.000608791
0.000619544
0.000629831
0.000639592
0.00064895
0.000657864
0.000666422
0.000674565
0.000682382
0.000689848
0.000696986
0.000703844
0.000710404
0.000716701
0.00072275
0.000728552
0.000734147
0.000739514
0.000744688
0.000749637
0.000754443
0.000759063
0.000763509
0.000767797
0.00077194
0.000775939
0.000779799
0.000783528
0.000787133
0.000790618
0.000793988
0.000797245
0.000800411
0.000803469
0.000806435
0.000809307
0.000812094
0.000814795
0.000817418
0.000819962
0.000822434
0.000824834
0.000827166
0.000829433
0.000831638
0.000833779
0.000835866
0.000837896
0.00083987
0.000841794
0.000843667
0.000845491
0.00084727
0.000849003
0.000850694
0.000852342
0.000853951
0.00085552
0.000857051
0.000858545
0.000860005
0.000861431
0.000862823
0.000864183
0.000865514
0.000866815
0.000868086
0.00086933
0.000870546
0.000871737
0.000872902
0.000874042
0.000875159
0.000876251
0.000877323
0.000878371
0.000879399
0.000880406
0.000881394
0.000882361
0.000883311
0.000884241
0.000885155
0.000886051
0.00088693
0.000887792
0.00088864
0.00088947
0.000890287
0.000891089
0.000891877
0.00089265
0.000893411
0.000894158
0.000894892
0.000895614
0.000896323
0.000897021
0.000897707
0.000898382
0.000899046
0.000899699
0.000900341
0.000900974
0.000901596
0.00090221
0.000902813
0.000903407
0.000903992
0.000904569
0.000905137
0.000905696
0.000906247
0.00090679
0.000907326
0.000907854
0.000908374
0.000908887
0.000909393
0.000909891
0.000910383
0.000910868
0.000911348
0.00091182
0.000912286
0.000912746
0.0009132
0.000913648
0.000914092
0.000914528
0.000914961
0.000915388
0.000915811
0.000916228
0.000916642
0.00091705
0.000917455
0.000917853
0.000918251
0.00091864
0.000919032
0.000919413
0.000919798
0.000920166
0.000920542
0.0009209
0.00092127
0.000921617
0.000921984
0.000922319
0.000922682
0.000923002
0.000923362
0.00092367
0.000924035
0.000924334
0.0009247
0.000924994
0.000925353
0.000925659
0.000926006
0.000926328
0.00092668
0.000926989
0.000927391
0.000927665
0.000928128
0.00226807
0.00154497
0.00104288
0.000696183
0.000494998
0.000353746
0.000271934
0.000215545
0.000184338
0.000169867
0.000166808
0.000173443
0.000187035
0.000206228
0.000228949
0.00025435
0.000280957
0.000308316
0.000335487
0.000362569
0.000388758
0.000414274
0.000438788
0.000462508
0.000485222
0.000506855
0.000527619
0.000547519
0.000566535
0.000584799
0.000601966
0.000618578
0.000634432
0.000649587
0.000664079
0.000677993
0.000691196
0.000703907
0.000716047
0.00072774
0.000738897
0.000749652
0.000759959
0.000769825
0.000779334
0.000788465
0.000797258
0.000805716
0.00081386
0.000821726
0.000829288
0.000836593
0.000843619
0.000850421
0.000856991
0.000863331
0.000869462
0.000875397
0.000881133
0.000886683
0.000892053
0.000897254
0.000902291
0.000907168
0.000911897
0.000916499
0.000920949
0.000925272
0.000929467
0.000933542
0.0009375
0.000941348
0.000945087
0.000948725
0.000952263
0.000955705
0.000959057
0.00096232
0.000965494
0.000968593
0.000971611
0.00097455
0.000977417
0.000980212
0.000982939
0.000985601
0.000988198
0.000990734
0.00099321
0.000995629
0.00099799
0.0010003
0.00100255
0.00100476
0.00100692
0.00100902
0.00101109
0.00101311
0.00101508
0.00101701
0.00101891
0.00102076
0.00102258
0.00102436
0.0010261
0.00102781
0.00102948
0.00103112
0.00103273
0.00103431
0.00103586
0.00103738
0.00103887
0.00104033
0.00104177
0.00104318
0.00104456
0.00104592
0.00104726
0.00104857
0.00104986
0.00105112
0.00105237
0.00105359
0.00105479
0.00105598
0.00105714
0.00105828
0.00105941
0.00106051
0.0010616
0.00106267
0.00106373
0.00106476
0.00106579
0.00106679
0.00106778
0.00106876
0.00106972
0.00107067
0.0010716
0.00107252
0.00107342
0.00107431
0.00107519
0.00107606
0.00107692
0.00107776
0.00107859
0.00107941
0.00108022
0.00108101
0.0010818
0.00108258
0.00108334
0.0010841
0.00108484
0.00108558
0.00108631
0.00108702
0.00108773
0.00108843
0.00108912
0.0010898
0.00109048
0.00109115
0.00109181
0.00109246
0.00109311
0.00109374
0.00109437
0.001095
0.00109562
0.00109623
0.00109683
0.00109744
0.00109802
0.00109861
0.00109918
0.00109976
0.00110031
0.00110089
0.00110142
0.00110198
0.0011025
0.00110306
0.00110355
0.00110411
0.0011046
0.00110515
0.00110563
0.00110618
0.00110665
0.0011072
0.00110767
0.00110823
0.00110869
0.00110931
0.0011097
0.00111046
0.00235558
0.00196606
0.00150185
0.00111698
0.000854986
0.000645229
0.000506316
0.00039718
0.00032319
0.000267755
0.000232079
0.000212151
0.000203296
0.000204433
0.00021316
0.000228277
0.000247987
0.000271293
0.000296705
0.000323727
0.000351281
0.000379077
0.000406586
0.000433711
0.000460231
0.000485947
0.000510831
0.000534941
0.000558139
0.000580628
0.00060207
0.000622766
0.000642668
0.000661789
0.000680218
0.000697936
0.00071476
0.000731126
0.000746786
0.00076191
0.000776381
0.000790419
0.000803877
0.000816789
0.000829282
0.000841307
0.000852919
0.0008641
0.000874905
0.000885353
0.000895412
0.000905149
0.000914551
0.000923648
0.000932459
0.000940977
0.00094922
0.000957213
0.000964946
0.000972442
0.000979707
0.000986756
0.000993592
0.00100023
0.00100667
0.00101293
0.00101902
0.00102493
0.00103067
0.00103626
0.00104169
0.00104699
0.00105213
0.00105715
0.00106203
0.00106679
0.00107142
0.00107594
0.00108034
0.00108465
0.00108884
0.00109293
0.00109692
0.00110082
0.00110463
0.00110835
0.00111198
0.00111553
0.001119
0.00112239
0.00112571
0.00112895
0.00113212
0.00113523
0.00113826
0.00114124
0.00114415
0.001147
0.00114979
0.00115253
0.00115521
0.00115784
0.00116041
0.00116294
0.00116541
0.00116784
0.00117022
0.00117256
0.00117485
0.0011771
0.0011793
0.00118147
0.0011836
0.00118569
0.00118774
0.00118976
0.00119174
0.00119369
0.0011956
0.00119748
0.00119933
0.00120115
0.00120293
0.00120469
0.00120642
0.00120812
0.00120979
0.00121144
0.00121306
0.00121465
0.00121622
0.00121777
0.00121929
0.00122079
0.00122227
0.00122372
0.00122515
0.00122656
0.00122795
0.00122932
0.00123067
0.001232
0.00123331
0.00123461
0.00123588
0.00123714
0.00123838
0.0012396
0.00124081
0.00124199
0.00124317
0.00124433
0.00124547
0.0012466
0.00124771
0.00124881
0.00124989
0.00125096
0.00125202
0.00125306
0.00125409
0.00125511
0.00125612
0.00125711
0.00125809
0.00125906
0.00126002
0.00126097
0.00126191
0.00126284
0.00126376
0.00126467
0.00126556
0.00126646
0.00126734
0.00126821
0.00126907
0.00126992
0.00127075
0.00127159
0.0012724
0.00127322
0.00127401
0.00127482
0.00127558
0.00127637
0.00127711
0.0012779
0.00127862
0.00127941
0.0012801
0.00128089
0.00128157
0.00128236
0.00128303
0.00128384
0.00128446
0.00128536
0.00128588
0.00128702
0.00237522
0.00222113
0.00187465
0.00152516
0.00125195
0.00100865
0.00082879
0.00067582
0.000559882
0.000463277
0.00039086
0.000332959
0.000291232
0.000264171
0.00024791
0.000241755
0.000243902
0.000253133
0.000267914
0.000287298
0.000309909
0.000334902
0.000361347
0.000388692
0.000416447
0.000444239
0.000471716
0.000498843
0.000525322
0.000551291
0.000576445
0.000600877
0.00062455
0.000647476
0.000669642
0.000691153
0.000711759
0.000731765
0.000751025
0.000769701
0.000787629
0.000805146
0.000821869
0.00083801
0.000853712
0.000868846
0.000883501
0.000897629
0.000911347
0.000924609
0.000937398
0.000949816
0.000961842
0.000973488
0.000984789
0.000995732
0.00100635
0.00101666
0.00102664
0.00103634
0.00104575
0.00105491
0.00106379
0.00107244
0.00108083
0.001089
0.00109696
0.00110469
0.00111221
0.00111954
0.00112668
0.00113363
0.00114041
0.00114701
0.00115345
0.00115973
0.00116586
0.00117183
0.00117766
0.00118336
0.00118892
0.00119435
0.00119965
0.00120483
0.0012099
0.00121485
0.00121969
0.00122442
0.00122905
0.00123358
0.00123802
0.00124236
0.0012466
0.00125076
0.00125484
0.00125882
0.00126273
0.00126657
0.00127032
0.001274
0.00127761
0.00128115
0.00128463
0.00128803
0.00129137
0.00129465
0.00129787
0.00130103
0.00130413
0.00130718
0.00131017
0.00131311
0.00131599
0.00131883
0.00132161
0.00132435
0.00132704
0.00132969
0.00133229
0.00133485
0.00133737
0.00133985
0.00134228
0.00134468
0.00134704
0.00134936
0.00135165
0.0013539
0.00135611
0.00135829
0.00136044
0.00136255
0.00136463
0.00136668
0.00136871
0.0013707
0.00137266
0.00137459
0.0013765
0.00137838
0.00138023
0.00138206
0.00138386
0.00138563
0.00138738
0.00138911
0.00139081
0.0013925
0.00139415
0.00139579
0.0013974
0.001399
0.00140057
0.00140212
0.00140366
0.00140517
0.00140666
0.00140814
0.00140959
0.00141103
0.00141245
0.00141386
0.00141524
0.00141661
0.00141796
0.0014193
0.00142063
0.00142194
0.00142323
0.00142451
0.00142578
0.00142703
0.00142826
0.00142949
0.0014307
0.00143191
0.00143309
0.00143427
0.00143542
0.00143657
0.00143769
0.00143881
0.00143991
0.00144101
0.00144207
0.00144315
0.00144418
0.00144525
0.00144625
0.00144732
0.00144829
0.00144935
0.00145029
0.00145136
0.00145226
0.00145338
0.00145421
0.00145543
0.00145612
0.0014577
0.00237154
0.0023458
0.00213226
0.00185931
0.00161657
0.00137756
0.00118493
0.00101036
0.000867084
0.000740582
0.000637231
0.000546035
0.000474095
0.000412494
0.000363856
0.000328689
0.000304178
0.000289319
0.000283247
0.00028483
0.000292876
0.000306398
0.000324205
0.000345373
0.000369014
0.000394471
0.000420981
0.000448236
0.00047569
0.00050326
0.000530582
0.000557561
0.000584045
0.000610019
0.000635344
0.000660143
0.000684162
0.000707575
0.000730256
0.000752354
0.0007737
0.000794532
0.000814679
0.000834144
0.000853084
0.000871418
0.000889236
0.000906447
0.000923259
0.000939467
0.000955144
0.000970443
0.000985284
0.000999674
0.00101367
0.00102724
0.00104045
0.00105328
0.00106571
0.00107783
0.00108961
0.00110107
0.00111222
0.00112308
0.00113363
0.00114393
0.00115396
0.00116372
0.00117323
0.0011825
0.00119154
0.00120037
0.00120897
0.00121736
0.00122555
0.00123355
0.00124137
0.00124899
0.00125644
0.00126372
0.00127083
0.00127779
0.00128459
0.00129124
0.00129774
0.0013041
0.00131032
0.00131642
0.00132238
0.00132823
0.00133394
0.00133955
0.00134504
0.00135041
0.00135568
0.00136085
0.00136591
0.00137088
0.00137575
0.00138053
0.00138522
0.00138982
0.00139433
0.00139876
0.00140311
0.00140738
0.00141157
0.00141569
0.00141973
0.00142371
0.00142761
0.00143145
0.00143522
0.00143893
0.00144257
0.00144616
0.00144968
0.00145315
0.00145656
0.00145991
0.00146321
0.00146646
0.00146965
0.0014728
0.0014759
0.00147894
0.00148195
0.0014849
0.00148781
0.00149068
0.0014935
0.00149629
0.00149903
0.00150173
0.00150439
0.00150702
0.0015096
0.00151215
0.00151467
0.00151715
0.00151959
0.001522
0.00152438
0.00152673
0.00152904
0.00153132
0.00153358
0.0015358
0.00153799
0.00154016
0.00154229
0.0015444
0.00154648
0.00154854
0.00155057
0.00155257
0.00155455
0.00155651
0.00155843
0.00156034
0.00156222
0.00156408
0.00156592
0.00156774
0.00156953
0.00157131
0.00157306
0.0015748
0.00157652
0.00157822
0.00157989
0.00158155
0.00158319
0.00158482
0.00158643
0.00158803
0.00158959
0.00159115
0.00159268
0.0015942
0.00159569
0.00159718
0.00159864
0.00160009
0.00160151
0.00160293
0.00160431
0.00160571
0.00160705
0.00160844
0.00160974
0.00161113
0.00161238
0.00161379
0.00161497
0.00161644
0.00161752
0.00161911
0.00162003
0.00162209
0.00236341
0.00238911
0.00228645
0.00209821
0.00190979
0.00170346
0.00152196
0.00134879
0.00119791
0.00105829
0.000937231
0.000826349
0.000731052
0.000644802
0.000570294
0.000506536
0.00045193
0.000408324
0.000375274
0.000350919
0.000335418
0.000327981
0.000327524
0.000333246
0.000344228
0.000359655
0.000378515
0.00040018
0.000423811
0.000448972
0.000475099
0.000501864
0.000528885
0.000556026
0.000582985
0.000609789
0.000636158
0.000662136
0.000687558
0.000712509
0.000736839
0.000760646
0.00078389
0.000806478
0.000828524
0.000849959
0.000870872
0.000891161
0.000910976
0.000930235
0.00094892
0.000967131
0.000984867
0.00100211
0.00101891
0.00103523
0.00105119
0.00106668
0.0010817
0.00109641
0.00111072
0.00112467
0.00113825
0.0011515
0.0011644
0.001177
0.00118929
0.00120125
0.00121293
0.00122434
0.00123547
0.00124635
0.00125696
0.00126734
0.00127746
0.00128736
0.00129705
0.0013065
0.00131575
0.00132479
0.00133364
0.00134229
0.00135076
0.00135905
0.00136717
0.00137511
0.00138289
0.00139051
0.00139798
0.00140529
0.00141246
0.00141949
0.00142637
0.00143313
0.00143975
0.00144625
0.00145262
0.00145887
0.00146501
0.00147103
0.00147694
0.00148275
0.00148844
0.00149404
0.00149954
0.00150494
0.00151024
0.00151546
0.00152058
0.00152561
0.00153056
0.00153543
0.00154022
0.00154492
0.00154955
0.00155411
0.00155859
0.00156299
0.00156733
0.0015716
0.0015758
0.00157994
0.00158401
0.00158802
0.00159197
0.00159586
0.00159969
0.00160346
0.00160718
0.00161084
0.00161445
0.00161801
0.00162152
0.00162497
0.00162838
0.00163174
0.00163505
0.00163831
0.00164154
0.00164471
0.00164785
0.00165094
0.00165399
0.00165699
0.00165996
0.00166289
0.00166578
0.00166864
0.00167146
0.00167424
0.00167698
0.00167969
0.00168237
0.00168501
0.00168762
0.0016902
0.00169274
0.00169525
0.00169774
0.00170019
0.00170261
0.00170501
0.00170738
0.00170971
0.00171202
0.00171431
0.00171657
0.00171881
0.00172102
0.0017232
0.00172537
0.00172751
0.00172962
0.00173171
0.00173378
0.00173584
0.00173786
0.00173987
0.00174184
0.0017438
0.00174572
0.00174763
0.00174952
0.00175138
0.00175322
0.00175504
0.00175683
0.00175861
0.00176035
0.00176212
0.00176381
0.00176558
0.00176719
0.001769
0.0017705
0.00177239
0.00177376
0.0017758
0.00177697
0.0017796
0.00235738
0.00239308
0.00236258
0.0022493
0.00211987
0.00196171
0.00180777
0.00165292
0.00151032
0.00137355
0.00124945
0.00113246
0.00102599
0.000927329
0.000837277
0.000755528
0.000679756
0.000614725
0.000555757
0.000504244
0.000462965
0.000429817
0.000404411
0.000386876
0.000376685
0.000373086
0.000375416
0.000383031
0.000395055
0.000410832
0.000429605
0.000450824
0.000473829
0.000498251
0.000523578
0.000549618
0.000575991
0.000602568
0.000629093
0.000655513
0.00068167
0.000707503
0.000733005
0.000758029
0.000782627
0.000806706
0.000830328
0.000853397
0.000875985
0.00089807
0.000919613
0.00094065
0.000961208
0.000981259
0.00100086
0.00101995
0.00103862
0.00105685
0.00107458
0.00109193
0.00110885
0.00112538
0.0011415
0.00115726
0.00117262
0.00118768
0.00120235
0.00121663
0.00123065
0.00124434
0.00125771
0.00127079
0.00128357
0.00129608
0.0013083
0.00132027
0.00133198
0.00134342
0.00135462
0.00136559
0.00137634
0.00138686
0.00139716
0.00140725
0.00141714
0.00142682
0.00143632
0.00144563
0.00145475
0.0014637
0.00147247
0.00148107
0.00148952
0.0014978
0.00150593
0.00151391
0.00152173
0.00152942
0.00153697
0.00154438
0.00155167
0.00155882
0.00156585
0.00157275
0.00157953
0.0015862
0.00159276
0.0015992
0.00160554
0.00161177
0.0016179
0.00162393
0.00162986
0.00163569
0.00164144
0.00164709
0.00165265
0.00165812
0.00166351
0.00166882
0.00167404
0.00167919
0.00168425
0.00168924
0.00169416
0.00169901
0.00170378
0.00170848
0.00171312
0.00171769
0.00172219
0.00172663
0.00173101
0.00173532
0.00173958
0.00174378
0.00174792
0.001752
0.00175603
0.00176
0.00176393
0.0017678
0.00177161
0.00177538
0.0017791
0.00178277
0.0017864
0.00178997
0.00179351
0.00179699
0.00180044
0.00180384
0.0018072
0.00181051
0.00181379
0.00181703
0.00182022
0.00182338
0.0018265
0.00182958
0.00183263
0.00183564
0.00183862
0.00184156
0.00184447
0.00184734
0.00185018
0.001853
0.00185578
0.00185853
0.00186125
0.00186394
0.0018666
0.00186924
0.00187184
0.00187443
0.00187697
0.0018795
0.00188198
0.00188445
0.00188688
0.00188929
0.00189166
0.00189401
0.00189632
0.00189862
0.00190087
0.00190312
0.00190531
0.00190755
0.00190965
0.00191189
0.0019139
0.00191617
0.00191806
0.00192042
0.00192214
0.00192468
0.00192614
0.00192944
0.00235431
0.00238294
0.00238931
0.00233302
0.00225392
0.00214667
0.00202856
0.00190212
0.00177887
0.00165619
0.00154019
0.00142814
0.00132241
0.00122212
0.0011268
0.00103781
0.000953412
0.000875175
0.000802353
0.000733609
0.000673424
0.000617428
0.000568189
0.000527057
0.000492853
0.000465178
0.000444687
0.000430893
0.000423259
0.000421356
0.000424602
0.000432457
0.000444206
0.000459334
0.00047718
0.000497311
0.000519192
0.000542473
0.000566755
0.000591771
0.000617285
0.000643056
0.000669002
0.000694909
0.000720736
0.000746337
0.000771706
0.000796733
0.000821414
0.000845718
0.000869606
0.000893055
0.000916083
0.000938652
0.000960793
0.000982473
0.00100371
0.00102454
0.00104488
0.00106481
0.0010843
0.0011034
0.00112206
0.00114035
0.00115821
0.00117573
0.00119287
0.0012096
0.00122599
0.00124204
0.00125775
0.00127314
0.00128819
0.00130294
0.00131737
0.00133154
0.00134539
0.00135893
0.00137223
0.00138527
0.00139804
0.00141056
0.00142283
0.00143486
0.00144666
0.00145823
0.00146958
0.00148073
0.00149165
0.00150236
0.00151289
0.00152322
0.00153335
0.00154331
0.00155308
0.00156269
0.00157211
0.00158138
0.00159048
0.00159943
0.00160822
0.00161686
0.00162535
0.0016337
0.00164191
0.00164998
0.00165792
0.00166573
0.00167341
0.00168097
0.00168841
0.00169573
0.00170294
0.00171003
0.00171701
0.00172388
0.00173065
0.00173731
0.00174388
0.00175034
0.00175671
0.00176299
0.00176917
0.00177526
0.00178126
0.00178718
0.00179301
0.00179876
0.00180442
0.00181001
0.00181552
0.00182096
0.00182632
0.0018316
0.00183681
0.00184196
0.00184703
0.00185204
0.00185698
0.00186185
0.00186667
0.00187141
0.0018761
0.00188073
0.0018853
0.00188981
0.00189426
0.00189866
0.00190301
0.0019073
0.00191153