/*--------------------------------*- C++ -*----------------------------------*\
  =========                 |
  \\      /  F ield         | OpenFOAM: The Open Source CFD Toolbox
   \\    /   O peration     | Website:  https://openfoam.org
    \\  /    A nd           | Version:  12
     \\/     M anipulation  |
\*---------------------------------------------------------------------------*/
FoamFile
{
    format      ascii;
    class       volScalarField;
    location    "700";
    object      p;
}
// * * * * * * * * * * * * * * * * * * * * * * * * * * * * * * * * * * * * * //

dimensions      [0 2 -2 0 0 0 0];

internalField   nonuniform List<scalar> 
20000
(
0.261435
0.140168
0.113861
0.111985
0.109627
0.107608
0.106252
0.105082
0.104032
0.103004
0.102011
0.101068
0.10016
0.0992977
0.098473
0.0976755
0.096897
0.0961225
0.0953623
0.0946245
0.0938924
0.0931673
0.0924543
0.0917498
0.0910557
0.0903636
0.0896808
0.0890005
0.0883286
0.0876577
0.0869954
0.0863345
0.0856791
0.0850267
0.0843777
0.0837326
0.0830927
0.0824545
0.08182
0.0811885
0.0805591
0.0799346
0.0793111
0.0786922
0.078074
0.07746
0.0768473
0.0762388
0.0756311
0.0750275
0.0744251
0.0738259
0.0732285
0.0726339
0.0720412
0.0714511
0.070863
0.0702767
0.0696933
0.0691115
0.0685321
0.0679545
0.0673789
0.0668055
0.0662335
0.065664
0.065096
0.0645304
0.0639661
0.0634041
0.0628434
0.0622847
0.0617275
0.0611724
0.0606187
0.0600669
0.0595167
0.058968
0.0584211
0.0578754
0.0573317
0.0567892
0.0562486
0.0557091
0.0551715
0.0546349
0.0541002
0.0535665
0.0530346
0.0525037
0.0519746
0.0514464
0.05092
0.0503945
0.0498707
0.0493479
0.0488266
0.0483063
0.0477875
0.0472698
0.0467534
0.0462382
0.0457242
0.0452113
0.0446997
0.0441892
0.0436797
0.0431715
0.0426643
0.0421584
0.0416534
0.0411497
0.0406468
0.0401452
0.0396444
0.0391448
0.0386461
0.0381485
0.0376519
0.0371563
0.0366616
0.036168
0.0356753
0.0351837
0.0346928
0.0342031
0.0337141
0.0332262
0.0327391
0.0322529
0.0317676
0.0312832
0.0307997
0.030317
0.0298353
0.0293543
0.0288743
0.028395
0.0279167
0.027439
0.0269623
0.0264863
0.0260112
0.0255369
0.0250633
0.0245905
0.0241186
0.0236474
0.023177
0.0227073
0.0222384
0.0217702
0.0213028
0.0208361
0.0203702
0.0199049
0.0194404
0.0189767
0.0185136
0.0180512
0.0175896
0.0171286
0.0166683
0.0162088
0.0157499
0.0152917
0.0148342
0.0143774
0.0139213
0.0134658
0.0130111
0.0125569
0.0121036
0.0116508
0.0111989
0.0107475
0.0102971
0.00984694
0.00939808
0.00894922
0.00850204
0.00805437
0.00760906
0.0071625
0.00671933
0.00627369
0.00583309
0.00538811
0.00495079
0.00450608
0.00407299
0.00362816
0.00320027
0.00275522
0.00233385
0.00188857
0.00147586
0.00102341
0.000634649
0.000115086
0.225021
0.138173
0.114532
0.112439
0.109892
0.107789
0.106392
0.105196
0.104127
0.103084
0.10208
0.101128
0.100212
0.0993442
0.0985144
0.0977127
0.0969306
0.0961531
0.0953905
0.0946504
0.0939163
0.0931895
0.0924749
0.0917691
0.0910737
0.0903806
0.0896967
0.0890155
0.0883428
0.0876712
0.0870082
0.0863467
0.0856908
0.0850378
0.0843883
0.0837427
0.0831024
0.0824639
0.081829
0.0811971
0.0805674
0.0799426
0.0793188
0.0786997
0.0780812
0.077467
0.076854
0.0762453
0.0756374
0.0750337
0.0744311
0.0738317
0.0732341
0.0726393
0.0720465
0.0714563
0.070868
0.0702816
0.069698
0.0691161
0.0685366
0.0679589
0.0673832
0.0668097
0.0662376
0.065668
0.0650999
0.0645343
0.0639699
0.0634077
0.062847
0.0622882
0.061731
0.0611757
0.060622
0.0600701
0.0595198
0.0589711
0.0584241
0.0578784
0.0573346
0.0567921
0.0562514
0.0557119
0.0551742
0.0546376
0.0541028
0.0535691
0.0530371
0.0525061
0.051977
0.0514488
0.0509224
0.0503968
0.049873
0.0493501
0.0488288
0.0483085
0.0477896
0.0472719
0.0467555
0.0462402
0.0457262
0.0452133
0.0447016
0.044191
0.0436816
0.0431734
0.0426661
0.0421602
0.0416552
0.0411514
0.0406485
0.0401468
0.039646
0.0391464
0.0386477
0.0381501
0.0376534
0.0371578
0.0366631
0.0361695
0.0356768
0.0351851
0.0346943
0.0342045
0.0337155
0.0332275
0.0327404
0.0322542
0.0317689
0.0312845
0.030801
0.0303183
0.0298365
0.0293555
0.0288755
0.0283962
0.0279178
0.0274402
0.0269635
0.0264875
0.0260123
0.025538
0.0250644
0.0245916
0.0241197
0.0236484
0.023178
0.0227083
0.0222394
0.0217712
0.0213038
0.0208371
0.0203711
0.0199059
0.0194414
0.0189776
0.0185145
0.0180521
0.0175905
0.0171295
0.0166692
0.0162097
0.0157508
0.0152926
0.014835
0.0143782
0.0139221
0.0134666
0.0130119
0.0125577
0.0121044
0.0116516
0.0111997
0.0107482
0.0102978
0.00984768
0.00939881
0.00894994
0.00850276
0.00805509
0.00760977
0.0071632
0.00672003
0.00627438
0.00583379
0.00538879
0.00495148
0.00450676
0.00407367
0.00362885
0.00320095
0.00275593
0.00233454
0.0018893
0.00147661
0.00102416
0.000635513
0.000115803
0.209527
0.140261
0.11611
0.11315
0.110326
0.108108
0.10665
0.105409
0.104305
0.103234
0.102211
0.101243
0.100313
0.0994363
0.0985972
0.0977875
0.0969983
0.0962149
0.0954474
0.0947028
0.0939646
0.0932343
0.0925167
0.0918081
0.0911101
0.0904147
0.0897288
0.0890458
0.0883713
0.0876982
0.0870338
0.086371
0.0857139
0.0850598
0.0844092
0.0837628
0.0831216
0.0824822
0.0818465
0.0812139
0.0805837
0.0799582
0.0793338
0.0787141
0.0780951
0.0774804
0.076867
0.0762579
0.0756495
0.0750454
0.0744424
0.0738427
0.0732448
0.0726497
0.0720566
0.0714661
0.0708775
0.0702909
0.069707
0.0691249
0.0685451
0.0679672
0.0673913
0.0668176
0.0662453
0.0656755
0.0651073
0.0645414
0.0639769
0.0634145
0.0628536
0.0622947
0.0617373
0.061182
0.0606281
0.0600761
0.0595257
0.0589769
0.0584297
0.0578839
0.05734
0.0567974
0.0562566
0.055717
0.0551792
0.0546425
0.0541076
0.0535738
0.0530417
0.0525107
0.0519815
0.0514532
0.0509267
0.0504011
0.0498771
0.0493542
0.0488328
0.0483124
0.0477935
0.0472757
0.0467592
0.0462438
0.0457298
0.0452168
0.0447051
0.0441945
0.043685
0.0431767
0.0426694
0.0421634
0.0416583
0.0411545
0.0406516
0.0401499
0.039649
0.0391494
0.0386506
0.038153
0.0376562
0.0371606
0.0366659
0.0361722
0.0356794
0.0351877
0.0346969
0.034207
0.033718
0.03323
0.0327429
0.0322566
0.0317713
0.0312868
0.0308033
0.0303206
0.0298388
0.0293578
0.0288777
0.0283984
0.02792
0.0274423
0.0269656
0.0264895
0.0260144
0.02554
0.0250664
0.0245936
0.0241216
0.0236503
0.0231799
0.0227102
0.0222412
0.021773
0.0213056
0.0208389
0.0203729
0.0199076
0.0194431
0.0189793
0.0185162
0.0180538
0.0175921
0.0171311
0.0166708
0.0162112
0.0157523
0.0152941
0.0148366
0.0143797
0.0139236
0.0134681
0.0130133
0.0125592
0.0121058
0.011653
0.0112011
0.0107496
0.0102992
0.00984902
0.00940015
0.00895125
0.00850407
0.00805637
0.00761106
0.00716446
0.00672131
0.00627562
0.00583505
0.00539002
0.00495273
0.00450799
0.00407491
0.00363009
0.00320218
0.00275719
0.0023358
0.00189056
0.00147798
0.00102542
0.000637182
0.000116173
0.204012
0.141365
0.118028
0.113863
0.110788
0.108459
0.106938
0.105651
0.104513
0.103415
0.102373
0.10139
0.100445
0.099559
0.098709
0.0978891
0.097091
0.0963005
0.0955266
0.0947762
0.0940325
0.0932976
0.0925759
0.0918638
0.0911622
0.0904636
0.0897749
0.0890893
0.0884125
0.0877372
0.0870708
0.0864061
0.0857473
0.0850916
0.0844396
0.0837919
0.0831494
0.0825088
0.0818721
0.0812384
0.0806072
0.0799808
0.0793555
0.0787351
0.0781153
0.0774999
0.0768858
0.0762761
0.0756671
0.0750625
0.0744589
0.0738587
0.0732603
0.0726647
0.0720712
0.0714802
0.0708912
0.0703043
0.06972
0.0691375
0.0685575
0.0679792
0.067403
0.0668289
0.0662564
0.0656864
0.0651178
0.0645517
0.0639869
0.0634244
0.0628632
0.0623041
0.0617465
0.061191
0.0606369
0.0600847
0.0595341
0.0589851
0.0584378
0.0578918
0.0573477
0.0568049
0.056264
0.0557242
0.0551863
0.0546495
0.0541145
0.0535805
0.0530483
0.0525172
0.0519878
0.0514594
0.0509328
0.0504071
0.0498831
0.04936
0.0488385
0.048318
0.047799
0.0472811
0.0467646
0.0462491
0.045735
0.0452219
0.0447101
0.0441994
0.0436898
0.0431815
0.0426741
0.042168
0.0416629
0.041159
0.040656
0.0401542
0.0396533
0.0391536
0.0386547
0.0381571
0.0376603
0.0371646
0.0366698
0.0361761
0.0356832
0.0351915
0.0347005
0.0342106
0.0337216
0.0332335
0.0327464
0.0322601
0.0317747
0.0312902
0.0308066
0.0303238
0.029842
0.0293609
0.0288808
0.0284015
0.027923
0.0274453
0.0269685
0.0264925
0.0260173
0.0255428
0.0250692
0.0245964
0.0241243
0.023653
0.0231826
0.0227128
0.0222439
0.0217756
0.0213081
0.0208414
0.0203754
0.0199101
0.0194455
0.0189817
0.0185185
0.0180561
0.0175944
0.0171334
0.0166731
0.0162135
0.0157545
0.0152963
0.0148387
0.0143819
0.0139257
0.0134702
0.0130154
0.0125612
0.0121078
0.011655
0.011203
0.0107516
0.0103011
0.00985094
0.00940205
0.00895313
0.00850594
0.00805821
0.00761289
0.00716626
0.00672312
0.0062774
0.00583684
0.00539177
0.0049545
0.00450973
0.00407666
0.00363183
0.00320393
0.00275894
0.00233758
0.00189232
0.00147989
0.00102721
0.000639346
0.000116028
0.198029
0.140841
0.119809
0.11476
0.111225
0.108766
0.107178
0.105854
0.104697
0.103587
0.102535
0.10154
0.100585
0.0996897
0.0988295
0.0980002
0.0971939
0.0963965
0.0956166
0.0948602
0.0941107
0.0933713
0.0926452
0.0919294
0.0912237
0.0905215
0.0898298
0.0891412
0.0884618
0.0877839
0.0871152
0.0864484
0.0857877
0.08513
0.0844763
0.0838271
0.0831831
0.082541
0.081903
0.0812681
0.0806357
0.0800083
0.079382
0.0787606
0.0781399
0.0775236
0.0769088
0.0762982
0.0756886
0.0750832
0.074479
0.0738781
0.0732792
0.0726831
0.0720889
0.0714975
0.070908
0.0703205
0.0697359
0.0691529
0.0685725
0.0679938
0.0674172
0.0668428
0.0662699
0.0656996
0.0651307
0.0645643
0.0639992
0.0634363
0.0628749
0.0623155
0.0617577
0.0612019
0.0606476
0.0600952
0.0595443
0.0589951
0.0584476
0.0579014
0.0573571
0.0568141
0.056273
0.0557331
0.055195
0.054658
0.0541228
0.0535887
0.0530563
0.052525
0.0519955
0.051467
0.0509403
0.0504144
0.0498902
0.0493671
0.0488455
0.0483248
0.0478057
0.0472877
0.046771
0.0462555
0.0457412
0.0452281
0.0447162
0.0442054
0.0436957
0.0431872
0.0426798
0.0421736
0.0416684
0.0411644
0.0406613
0.0401595
0.0396585
0.0391587
0.0386598
0.038162
0.0376651
0.0371694
0.0366745
0.0361807
0.0356878
0.035196
0.034705
0.0342151
0.033726
0.0332378
0.0327506
0.0322642
0.0317788
0.0312942
0.0308106
0.0303278
0.0298459
0.0293648
0.0288846
0.0284052
0.0279267
0.027449
0.0269721
0.026496
0.0260208
0.0255463
0.0250726
0.0245997
0.0241277
0.0236563
0.0231858
0.022716
0.022247
0.0217787
0.0213112
0.0208444
0.0203784
0.0199131
0.0194485
0.0189846
0.0185214
0.018059
0.0175972
0.0171362
0.0166758
0.0162162
0.0157572
0.0152989
0.0148413
0.0143844
0.0139282
0.0134727
0.0130179
0.0125637
0.0121103
0.0116574
0.0112054
0.0107539
0.0103035
0.00985326
0.00940435
0.0089554
0.0085082
0.00806044
0.00761511
0.00716845
0.0067253
0.00627954
0.005839
0.00539389
0.00495663
0.00451183
0.00407876
0.00363392
0.00320601
0.00276102
0.0023397
0.00189438
0.00148211
0.00102933
0.00064162
0.000115338
0.191552
0.140205
0.120972
0.115803
0.111719
0.109059
0.107386
0.106016
0.10484
0.103723
0.102672
0.101674
0.100714
0.099814
0.0989463
0.0981105
0.0972985
0.0964952
0.0957104
0.0949489
0.0941941
0.0934505
0.0927205
0.092001
0.0912911
0.0905853
0.0898906
0.0891991
0.088517
0.0878364
0.0871651
0.0864962
0.0858334
0.0851737
0.084518
0.0838672
0.0832216
0.0825779
0.0819386
0.0813022
0.0806686
0.0800399
0.0794125
0.0787901
0.0781683
0.077551
0.0769352
0.0763238
0.0757133
0.0751072
0.0745022
0.0739006
0.073301
0.0727043
0.0721095
0.0715175
0.0709274
0.0703394
0.0697542
0.0691708
0.0685899
0.0680107
0.0674338
0.0668588
0.0662855
0.0657149
0.0651456
0.0645789
0.0640134
0.0634502
0.0628885
0.0623287
0.0617706
0.0612145
0.06066
0.0601073
0.0595562
0.0590067
0.0584589
0.0579125
0.057368
0.0568248
0.0562835
0.0557433
0.0552051
0.0546678
0.0541325
0.0535982
0.0530657
0.0525342
0.0520045
0.0514758
0.0509489
0.0504229
0.0498986
0.0493753
0.0488535
0.0483328
0.0478135
0.0472953
0.0467785
0.0462629
0.0457485
0.0452352
0.0447232
0.0442123
0.0437025
0.0431939
0.0426864
0.0421801
0.0416748
0.0411707
0.0406675
0.0401656
0.0396645
0.0391646
0.0386656
0.0381678
0.0376708
0.037175
0.03668
0.0361862
0.0356932
0.0352013
0.0347102
0.0342202
0.033731
0.0332428
0.0327555
0.0322691
0.0317836
0.0312989
0.0308153
0.0303324
0.0298504
0.0293692
0.028889
0.0284095
0.027931
0.0274532
0.0269763
0.0265001
0.0260248
0.0255503
0.0250766
0.0246036
0.0241315
0.0236601
0.0231896
0.0227197
0.0222507
0.0217824
0.0213148
0.020848
0.0203819
0.0199165
0.0194519
0.018988
0.0185248
0.0180623
0.0176005
0.0171394
0.016679
0.0162193
0.0157603
0.015302
0.0148444
0.0143875
0.0139312
0.0134756
0.0130208
0.0125666
0.0121131
0.0116602
0.0112082
0.0107567
0.0103062
0.00985595
0.00940702
0.00895804
0.00851082
0.00806302
0.00761768
0.00717098
0.00672783
0.00628203
0.00584148
0.00539634
0.00495907
0.00451425
0.00408116
0.00363632
0.00320839
0.00276338
0.0023421
0.00189667
0.00148461
0.0010317
0.000643899
0.000114213
0.185561
0.140075
0.121694
0.116476
0.112263
0.109427
0.10761
0.10617
0.104961
0.103826
0.102772
0.101773
0.100816
0.0999188
0.0990491
0.0982116
0.0973977
0.0965903
0.0958022
0.0950375
0.0942784
0.0935311
0.0927978
0.0920754
0.0913614
0.0906525
0.0899551
0.0892609
0.0885763
0.0878929
0.0872192
0.0865482
0.0858834
0.0852216
0.084564
0.0839114
0.0832641
0.0826188
0.081978
0.0813401
0.0807051
0.0800752
0.0794465
0.078823
0.0782
0.0775817
0.076965
0.0763526
0.0757412
0.0751343
0.0745284
0.073926
0.0733257
0.0727283
0.0721328
0.0715401
0.0709494
0.0703608
0.0697751
0.0691911
0.0686096
0.0680299
0.0674525
0.0668771
0.0663034
0.0657322
0.0651626
0.0645954
0.0640296
0.063466
0.0629039
0.0623438
0.0617854
0.061229
0.0606741
0.0601211
0.0595697
0.05902
0.0584719
0.0579252
0.0573804
0.056837
0.0562954
0.055755
0.0552166
0.0546791
0.0541436
0.053609
0.0530763
0.0525446
0.0520148
0.0514859
0.0509588
0.0504326
0.0499081
0.0493846
0.0488627
0.0483418
0.0478224
0.047304
0.0467871
0.0462713
0.0457568
0.0452434
0.0447312
0.0442202
0.0437103
0.0432016
0.0426939
0.0421875
0.0416821
0.0411779
0.0406746
0.0401725
0.0396713
0.0391714
0.0386723
0.0381743
0.0376773
0.0371813
0.0366863
0.0361924
0.0356993
0.0352073
0.0347161
0.034226
0.0337368
0.0332485
0.0327611
0.0322746
0.0317891
0.0313043
0.0308206
0.0303376
0.0298556
0.0293744
0.0288941
0.0284145
0.0279359
0.027458
0.0269811
0.0265048
0.0260295
0.0255549
0.0250811
0.0246081
0.024136
0.0236645
0.0231939
0.022724
0.0222549
0.0217865
0.0213189
0.020852
0.0203859
0.0199205
0.0194558
0.0189918
0.0185286
0.0180661
0.0176042
0.0171431
0.0166827
0.0162229
0.0157639
0.0153056
0.0148479
0.0143909
0.0139346
0.013479
0.0130241
0.0125699
0.0121164
0.0116635
0.0112114
0.0107598
0.0103093
0.00985904
0.00941009
0.00896106
0.00851382
0.00806598
0.00762062
0.00717387
0.00673071
0.00628487
0.00584432
0.00539914
0.00496185
0.004517
0.00408389
0.00363904
0.00321108
0.00276604
0.00234479
0.00189918
0.00148739
0.00103429
0.000646177
0.00011273
0.180132
0.139802
0.12252
0.116923
0.112656
0.109872
0.107887
0.106341
0.105087
0.103924
0.102858
0.101848
0.10089
0.0999951
0.0991259
0.0982916
0.0974808
0.0966733
0.0958854
0.09512
0.0943585
0.0936087
0.0928733
0.092149
0.0914319
0.0907203
0.0900208
0.0893243
0.0886377
0.0879516
0.0872757
0.0866029
0.0859363
0.0852724
0.0846129
0.0839586
0.0833095
0.0826628
0.0820206
0.081381
0.0807447
0.0801136
0.0794836
0.0788589
0.0782347
0.0776152
0.0769976
0.0763842
0.0757719
0.0751641
0.0745573
0.073954
0.0733529
0.0727548
0.0721586
0.0715652
0.0709738
0.0703845
0.0697982
0.0692136
0.0686316
0.0680513
0.0674734
0.0668974
0.0663232
0.0657516
0.0651815
0.0646139
0.0640476
0.0634837
0.0629212
0.0623607
0.0618019
0.0612451
0.0606899
0.0601366
0.0595848
0.0590348
0.0584864
0.0579394
0.0573944
0.0568507
0.0563089
0.0557682
0.0552295
0.0546917
0.054156
0.0536212
0.0530882
0.0525564
0.0520263
0.0514972
0.0509699
0.0504435
0.0499189
0.0493951
0.0488731
0.048352
0.0478324
0.0473139
0.0467968
0.0462808
0.0457662
0.0452526
0.0447403
0.0442291
0.0437191
0.0432102
0.0427024
0.0421959
0.0416903
0.041186
0.0406826
0.0401804
0.0396791
0.039179
0.0386798
0.0381817
0.0376846
0.0371885
0.0366934
0.0361994
0.0357062
0.0352141
0.0347228
0.0342326
0.0337433
0.0332549
0.0327674
0.0322809
0.0317952
0.0313104
0.0308266
0.0303435
0.0298615
0.0293801
0.0288998
0.0284201
0.0279415
0.0274635
0.0269865
0.0265102
0.0260348
0.0255601
0.0250863
0.0246132
0.024141
0.0236695
0.0231988
0.0227288
0.0222597
0.0217912
0.0213236
0.0208566
0.0203905
0.019925
0.0194603
0.0189962
0.0185329
0.0180703
0.0176084
0.0171473
0.0166868
0.016227
0.0157679
0.0153096
0.0148518
0.0143948
0.0139385
0.0134829
0.0130279
0.0125736
0.0121201
0.0116671
0.0112151
0.0107634
0.0103129
0.00986254
0.00941355
0.00896449
0.00851721
0.00806934
0.00762395
0.00717715
0.00673396
0.00628809
0.00584751
0.0054023
0.00496498
0.00452011
0.00408694
0.00364209
0.00321408
0.00276899
0.00234777
0.00190193
0.00149043
0.0010371
0.000648455
0.000110928
0.17504
0.139437
0.123227
0.117469
0.112954
0.11018
0.108205
0.106553
0.105229
0.104031
0.10295
0.101922
0.100956
0.100057
0.0991817
0.0983478
0.0975406
0.096735
0.0959508
0.0951888
0.0944279
0.0936782
0.0929427
0.0922181
0.091499
0.0907856
0.0900846
0.0893866
0.0886985
0.0880103
0.0873326
0.0866583
0.0859902
0.0853245
0.0846633
0.0840075
0.0833569
0.0827087
0.0820652
0.0814241
0.0807866
0.0801543
0.0795229
0.0788971
0.0782718
0.0776512
0.0770325
0.0764182
0.0758049
0.0751963
0.0745884
0.0739844
0.0733824
0.0727836
0.0721866
0.0715925
0.0710003
0.0704104
0.0698234
0.0692382
0.0686556
0.0680747
0.0674963
0.0669198
0.066345
0.0657729
0.0652024
0.0646343
0.0640675
0.0635032
0.0629402
0.0623793
0.0618201
0.061263
0.0607074
0.0601537
0.0596016
0.0590512
0.0585025
0.0579552
0.0574098
0.0568658
0.0563237
0.0557828
0.0552438
0.0547058
0.0541698
0.0536347
0.0531015
0.0525694
0.0520391
0.0515098
0.0509823
0.0504557
0.0499308
0.0494069
0.0488846
0.0483633
0.0478435
0.0473248
0.0468076
0.0462914
0.0457766
0.0452629
0.0447504
0.044239
0.0437289
0.0432198
0.0427119
0.0422052
0.0416995
0.0411951
0.0406915
0.0401892
0.0396877
0.0391876
0.0386882
0.03819
0.0376928
0.0371966
0.0367013
0.0362072
0.0357139
0.0352217
0.0347303
0.03424
0.0337506
0.0332621
0.0327745
0.0322879
0.0318021
0.0313172
0.0308333
0.0303502
0.029868
0.0293866
0.0289062
0.0284265
0.0279477
0.0274697
0.0269926
0.0265162
0.0260407
0.025566
0.0250921
0.0246189
0.0241466
0.023675
0.0232043
0.0227343
0.0222651
0.0217965
0.0213288
0.0208618
0.0203956
0.01993
0.0194652
0.0190012
0.0185378
0.0180752
0.0176132
0.017152
0.0166915
0.0162316
0.0157725
0.0153141
0.0148563
0.0143992
0.0139429
0.0134872
0.0130322
0.0125778
0.0121243
0.0116712
0.0112191
0.0107675
0.0103168
0.00986648
0.00941745
0.00896834
0.00852102
0.0080731
0.00762767
0.00718084
0.0067376
0.00629169
0.00585107
0.00540583
0.00496846
0.00452357
0.00409034
0.00364547
0.00321741
0.00277226
0.00235105
0.00190491
0.00149374
0.00104011
0.000650737
0.00010884
0.170209
0.139014
0.123791
0.117966
0.113346
0.110413
0.108424
0.106774
0.105407
0.104155
0.10305
0.102003
0.101027
0.100121
0.099235
0.0983966
0.0975875
0.0967792
0.0959969
0.0952383
0.0944795
0.0937323
0.0929996
0.0922774
0.0915583
0.0908447
0.0901437
0.0894452
0.0887564
0.0880667
0.0873879
0.0867124
0.0860434
0.0853762
0.0847136
0.0840566
0.0834048
0.0827553
0.0821108
0.0814682
0.0808296
0.0801963
0.0795636
0.0789369
0.0783104
0.0776888
0.0770692
0.076454
0.0758398
0.0752302
0.0746214
0.0740165
0.0734138
0.0728142
0.0722164
0.0716217
0.0710287
0.0704381
0.0698505
0.0692646
0.0686814
0.0681
0.067521
0.0669439
0.0663685
0.065796
0.0652249
0.0646564
0.0640891
0.0635243
0.0629609
0.0623995
0.0618399
0.0612824
0.0607264
0.0601723
0.0596199
0.0590692
0.0585201
0.0579724
0.0574267
0.0568824
0.05634
0.0557987
0.0552594
0.0547212
0.0541849
0.0536495
0.0531161
0.0525837
0.0520531
0.0515236
0.0509958
0.050469
0.0499439
0.0494198
0.0488973
0.0483758
0.0478558
0.0473369
0.0468195
0.0463031
0.0457881
0.0452742
0.0447616
0.04425
0.0437397
0.0432305
0.0427224
0.0422156
0.0417097
0.0412051
0.0407014
0.0401989
0.0396973
0.039197
0.0386975
0.0381992
0.0377018
0.0372055
0.0367101
0.0362159
0.0357225
0.0352301
0.0347387
0.0342483
0.0337587
0.0332701
0.0327824
0.0322957
0.0318098
0.0313248
0.0308408
0.0303576
0.0298753
0.0293938
0.0289133
0.0284335
0.0279546
0.0274765
0.0269993
0.0265229
0.0260473
0.0255725
0.0250985
0.0246253
0.0241529
0.0236812
0.0232104
0.0227403
0.022271
0.0218024
0.0213347
0.0208676
0.0204013
0.0199357
0.0194708
0.0190067
0.0185432
0.0180805
0.0176185
0.0171572
0.0166966
0.0162368
0.0157776
0.0153191
0.0148613
0.0144041
0.0139477
0.013492
0.0130369
0.0125825
0.0121289
0.0116758
0.0112237
0.0107719
0.0103213
0.00987087
0.00942179
0.00897263
0.00852526
0.0080773
0.00763182
0.00718494
0.00674165
0.0062957
0.00585502
0.00540975
0.00497232
0.00452741
0.00409409
0.00364921
0.00322107
0.00277584
0.00235463
0.00190814
0.00149729
0.00104331
0.000653036
0.000106504
0.165637
0.138501
0.124232
0.118394
0.113718
0.11072
0.108596
0.106954
0.105554
0.104294
0.103165
0.102091
0.101102
0.10019
0.0992924
0.098449
0.0976358
0.096821
0.0960367
0.0952775
0.0945173
0.0937707
0.0930404
0.0923216
0.0916039
0.0908923
0.0901931
0.089496
0.0888081
0.088118
0.087439
0.0867632
0.0860939
0.0854257
0.084762
0.0841045
0.0834518
0.0828013
0.0821561
0.0815121
0.0808727
0.0802386
0.0796049
0.0789774
0.0783498
0.0777273
0.0771069
0.0764908
0.0758758
0.0752654
0.0746557
0.0740501
0.0734466
0.0728463
0.0722477
0.0716524
0.0710587
0.0704673
0.0698791
0.0692926
0.0687088
0.0681268
0.0675472
0.0669695
0.0663936
0.0658206
0.065249
0.0646799
0.0641122
0.063547
0.0629831
0.0624212
0.0618612
0.0613033
0.0607469
0.0601924
0.0596396
0.0590885
0.058539
0.057991
0.057445
0.0569003
0.0563576
0.055816
0.0552764
0.0547378
0.0542013
0.0536656
0.0531319
0.0525992
0.0520684
0.0515386
0.0510106
0.0504835
0.0499582
0.0494338
0.0489111
0.0483894
0.0478692
0.0473501
0.0468325
0.0463159
0.0458007
0.0452866
0.0447738
0.044262
0.0437515
0.0432421
0.0427338
0.0422269
0.0417208
0.0412161
0.0407122
0.0402096
0.0397078
0.0392074
0.0387077
0.0382093
0.0377117
0.0372153
0.0367198
0.0362254
0.0357319
0.0352394
0.0347478
0.0342573
0.0337676
0.0332789
0.0327911
0.0323042
0.0318183
0.0313332
0.030849
0.0303657
0.0298833
0.0294017
0.0289211
0.0284412
0.0279623
0.027484
0.0270068
0.0265302
0.0260546
0.0255796
0.0251056
0.0246323
0.0241598
0.0236881
0.0232172
0.022747
0.0222776
0.021809
0.0213411
0.020874
0.0204076
0.0199419
0.019477
0.0190128
0.0185492
0.0180865
0.0176244
0.0171631
0.0167024
0.0162425
0.0157832
0.0153246
0.0148668
0.0144096
0.0139531
0.0134973
0.0130422
0.0125877
0.0121341
0.0116809
0.0112287
0.0107769
0.0103262
0.00987574
0.0094266
0.00897739
0.00852996
0.00808195
0.00763641
0.00718948
0.00674612
0.00630013
0.00585938
0.00541409
0.00497656
0.00453164
0.00409821
0.0036533
0.00322507
0.00277974
0.00235852
0.00191164
0.00150106
0.00104667
0.000655376
0.00010397
0.161326
0.137873
0.124556
0.118757
0.114058
0.111014
0.10882
0.107129
0.105658
0.104418
0.103258
0.102188
0.101187
0.100266
0.0993525
0.0985035
0.097688
0.0968657
0.0960787
0.0953177
0.0945536
0.0938042
0.0930734
0.0923555
0.0916371
0.0909265
0.0902295
0.0895348
0.0888491
0.0881598
0.0874822
0.0868076
0.0861391
0.0854706
0.0848066
0.0841491
0.0834962
0.0828451
0.0821996
0.0815545
0.0809146
0.08028
0.0796456
0.0790174
0.0783889
0.0777657
0.0771447
0.0765279
0.0759121
0.0753011
0.0746905
0.0740842
0.0734802
0.0728792
0.07228
0.0716841
0.0710896
0.0704975
0.0699088
0.0693218
0.0687374
0.0681547
0.0675747
0.0669964
0.0664199
0.0658465
0.0652743
0.0647048
0.0641366
0.0635709
0.0630065
0.0624442
0.0618838
0.0613255
0.0607687
0.0602139
0.0596606
0.0591092
0.0585593
0.0580108
0.0574645
0.0569195
0.0563765
0.0558345
0.0552947
0.0547557
0.0542189
0.053683
0.0531489
0.052616
0.0520849
0.0515548
0.0510266
0.0504992
0.0499737
0.049449
0.0489261
0.0484041
0.0478837
0.0473644
0.0468465
0.0463297
0.0458143
0.0453
0.044787
0.044275
0.0437644
0.0432548
0.0427463
0.0422392
0.0417329
0.041228
0.040724
0.0402212
0.0397193
0.0392187
0.0387189
0.0382203
0.0377226
0.037226
0.0367304
0.0362358
0.0357421
0.0352495
0.0347578
0.0342672
0.0337773
0.0332885
0.0328006
0.0323136
0.0318275
0.0313423
0.030858
0.0303746
0.0298921
0.0294104
0.0289297
0.0284497
0.0279706
0.0274923
0.0270149
0.0265383
0.0260625
0.0255875
0.0251134
0.02464
0.0241674
0.0236956
0.0232246
0.0227543
0.0222849
0.0218161
0.0213482
0.020881
0.0204145
0.0199488
0.0194837
0.0190194
0.0185559
0.018093
0.0176309
0.0171695
0.0167087
0.0162487
0.0157894
0.0153308
0.0148728
0.0144156
0.013959
0.0135031
0.013048
0.0125935
0.0121397
0.0116866
0.0112343
0.0107824
0.0103316
0.00988111
0.00943191
0.00898264
0.00853514
0.00808708
0.00764146
0.00719448
0.00675104
0.00630501
0.00586417
0.00541884
0.00498122
0.00453628
0.00410271
0.00365778
0.00322942
0.00278399
0.00236271
0.00191545
0.00150505
0.00105018
0.000657775
0.000101302
0.157275
0.137127
0.124763
0.119054
0.114368
0.111287
0.109042
0.107298
0.105796
0.104532
0.103329
0.102279
0.101277
0.100325
0.0994225
0.0985637
0.0977429
0.096912
0.096122
0.0953609
0.0945922
0.0938391
0.0931073
0.092389
0.0916672
0.0909552
0.0902581
0.0895641
0.0888794
0.0881905
0.0875146
0.0868419
0.0861754
0.0855077
0.0848443
0.084188
0.0835357
0.0828848
0.0822396
0.0815939
0.0809539
0.0803192
0.0796843
0.079056
0.0784267
0.0778029
0.0771815
0.0765643
0.0759479
0.0753366
0.0747251
0.0741183
0.0735138
0.0729123
0.0723124
0.0717161
0.071121
0.0705283
0.0699391
0.0693516
0.0687667
0.0681835
0.0676031
0.0670241
0.0664472
0.0658733
0.0653006
0.0647307
0.064162
0.063596
0.0630311
0.0624682
0.0619074
0.0613488
0.0607915
0.0602364
0.0596827
0.0591309
0.0585807
0.0580318
0.0574852
0.0569399
0.0563965
0.0558542
0.055314
0.0547748
0.0542377
0.0537014
0.053167
0.0526338
0.0521025
0.0515721
0.0510436
0.050516
0.0499902
0.0494653
0.0489422
0.0484199
0.0478992
0.0473797
0.0468616
0.0463446
0.045829
0.0453144
0.0448013
0.0442891
0.0437782
0.0432684
0.0427597
0.0422524
0.041746
0.0412409
0.0407367
0.0402338
0.0397317
0.0392309
0.0387309
0.0382322
0.0377343
0.0372376
0.0367418
0.0362471
0.0357533
0.0352605
0.0347687
0.0342779
0.0337879
0.033299
0.0328109
0.0323238
0.0318376
0.0313522
0.0308679
0.0303843
0.0299017
0.0294199
0.028939
0.0284589
0.0279798
0.0275013
0.0270239
0.0265471
0.0260712
0.0255961
0.0251218
0.0246484
0.0241757
0.0237038
0.0232327
0.0227624
0.0222928
0.021824
0.021356
0.0208886
0.0204221
0.0199562
0.0194912
0.0190268
0.0185631
0.0181002
0.017638
0.0171765
0.0167157
0.0162556
0.0157962
0.0153375
0.0148795
0.0144222
0.0139655
0.0135096
0.0130544
0.0125998
0.012146
0.0116927
0.0112404
0.0107885
0.0103376
0.00988701
0.00943773
0.00898839
0.00854082
0.0080927
0.007647
0.00719997
0.00675643
0.00631036
0.00586941
0.00542405
0.00498629
0.00454134
0.00410761
0.00366266
0.00323414
0.00278859
0.00236723
0.00191957
0.00150927
0.00105383
0.000660239
9.85685e-05
0.153479
0.136272
0.124854
0.119282
0.114644
0.11154
0.10925
0.107464
0.105935
0.104643
0.10343
0.102363
0.101352
0.100374
0.0994938
0.0986265
0.0977835
0.096965
0.0961705
0.0954063
0.0946325
0.0938748
0.0931423
0.0924247
0.0916987
0.0909845
0.0902867
0.0895921
0.0889066
0.0882158
0.0875401
0.086868
0.0862028
0.0855354
0.0848727
0.0842183
0.0835673
0.0829174
0.0822735
0.0816278
0.0809886
0.0803543
0.0797197
0.0790915
0.0784618
0.0778378
0.0772165
0.0765989
0.0759823
0.0753708
0.0747587
0.0741514
0.0735466
0.0729448
0.0723445
0.0717479
0.0711522
0.070559
0.0699694
0.0693815
0.0687962
0.0682125
0.0676318
0.0670522
0.0664748
0.0659006
0.0653275
0.0647571
0.064188
0.0636217
0.0630563
0.062493
0.0619319
0.0613729
0.0608153
0.0602598
0.0597056
0.0591536
0.058603
0.0580537
0.0575068
0.0569611
0.0564174
0.0558748
0.0553344
0.0547948
0.0542574
0.0537208
0.0531861
0.0526527
0.0521211
0.0515904
0.0510616
0.0505338
0.0500077
0.0494825
0.0489592
0.0484366
0.0479157
0.047396
0.0468777
0.0463604
0.0458446
0.0453298
0.0448165
0.044304
0.043793
0.043283
0.0427741
0.0422666
0.04176
0.0412547
0.0407503
0.0402472
0.0397449
0.039244
0.0387438
0.038245
0.0377469
0.03725
0.0367541
0.0362592
0.0357652
0.0352724
0.0347803
0.0342894
0.0337993
0.0333103
0.032822
0.0323348
0.0318484
0.0313629
0.0308785
0.0303948
0.029912
0.0294301
0.0289491
0.0284689
0.0279896
0.0275111
0.0270335
0.0265566
0.0260807
0.0256054
0.0251311
0.0246575
0.0241847
0.0237127
0.0232415
0.0227711
0.0223014
0.0218325
0.0213644
0.020897
0.0204303
0.0199644
0.0194992
0.0190348
0.018571
0.018108
0.0176457
0.0171841
0.0167232
0.0162631
0.0158036
0.0153448
0.0148867
0.0144293
0.0139726
0.0135166
0.0130613
0.0126066
0.0121528
0.0116994
0.011247
0.010795
0.0103441
0.00989345
0.00944408
0.00899469
0.00854702
0.00809884
0.00765305
0.00720596
0.00676231
0.00631619
0.00587511
0.00542972
0.00499181
0.00454684
0.00411293
0.00366794
0.00323923
0.00279356
0.00237206
0.00192401
0.00151371
0.00105764
0.000662774
9.5842e-05
0.149931
0.135321
0.124833
0.11944
0.114883
0.111771
0.109447
0.107625
0.10607
0.104753
0.103531
0.102446
0.101425
0.100446
0.0995537
0.0986809
0.0978201
0.0970194
0.0962215
0.0954393
0.0946723
0.0939179
0.0931807
0.0924621
0.0917316
0.0910145
0.0903159
0.0896212
0.088935
0.0882413
0.0875649
0.0868925
0.0862273
0.0855585
0.0848951
0.0842417
0.0835912
0.0829422
0.0822996
0.081654
0.0810162
0.080383
0.0797492
0.0791221
0.0784924
0.0778688
0.0772479
0.0766306
0.0760139
0.0754026
0.0747901
0.0741827
0.0735779
0.0729759
0.0723753
0.0717786
0.0711824
0.0705889
0.069999
0.0694108
0.0688253
0.0682412
0.0676602
0.0670802
0.0665024
0.0659279
0.0653545
0.0647838
0.0642143
0.0636477
0.0630819
0.0625182
0.0619567
0.0613975
0.0608395
0.0602837
0.0597292
0.0591769
0.0586259
0.0580763
0.057529
0.0569831
0.0564391
0.0558962
0.0553555
0.0548156
0.0542779
0.053741
0.053206
0.0526723
0.0521405
0.0516095
0.0510805
0.0505524
0.0500261
0.0495006
0.0489771
0.0484542
0.0479331
0.0474132
0.0468946
0.0463771
0.0458611
0.0453461
0.0448325
0.0443199
0.0438087
0.0432984
0.0427894
0.0422817
0.0417749
0.0412694
0.0407648
0.0402615
0.0397591
0.039258
0.0387576
0.0382586
0.0377603
0.0372633
0.0367672
0.0362722
0.0357781
0.035285
0.0347929
0.0343018
0.0338115
0.0333223
0.032834
0.0323466
0.0318601
0.0313745
0.0308898
0.030406
0.0299232
0.0294411
0.02896
0.0284796
0.0280003
0.0275216
0.0270439
0.0265669
0.0260908
0.0256155
0.025141
0.0246673
0.0241945
0.0237223
0.0232511
0.0227805
0.0223108
0.0218417