/*--------------------------------*- C++ -*----------------------------------*\
  =========                 |
  \\      /  F ield         | OpenFOAM: The Open Source CFD Toolbox
   \\    /   O peration     | Website:  https://openfoam.org
    \\  /    A nd           | Version:  12
     \\/     M anipulation  |
\*---------------------------------------------------------------------------*/
FoamFile
{
    format      ascii;
    class       volVectorField;
    location    "700";
    object      U;
}
// * * * * * * * * * * * * * * * * * * * * * * * * * * * * * * * * * * * * * //

dimensions      [0 1 -1 0 0 0 0];

internalField   nonuniform List<vector> 
20000
(
(0.696546 -0.0953482 0)
(0.391224 -0.00674943 0)
(0.255427 0.000249489 0)
(0.201813 0.000182992 0)
(0.179406 0.000130881 0)
(0.165874 7.46366e-05 0)
(0.156859 1.49674e-05 0)
(0.150825 -6.81127e-06 0)
(0.146228 -1.41422e-05 0)
(0.14271 -8.85367e-06 0)
(0.139521 -8.07901e-06 0)
(0.137096 -7.74159e-06 0)
(0.134759 -2.87259e-06 0)
(0.13285 -6.35757e-06 0)
(0.131166 -6.21485e-06 0)
(0.129711 -4.68982e-06 0)
(0.12834 -2.91009e-06 0)
(0.127116 -1.2864e-06 0)
(0.125947 -8.32064e-08 0)
(0.124894 1.61151e-07 0)
(0.123894 1.4338e-06 0)
(0.12296 2.24968e-06 0)
(0.122075 2.84327e-06 0)
(0.121236 3.11966e-06 0)
(0.120457 3.32598e-06 0)
(0.119705 4.10945e-06 0)
(0.11899 4.19112e-06 0)
(0.118305 4.76111e-06 0)
(0.117647 4.80382e-06 0)
(0.117017 5.11881e-06 0)
(0.116414 5.06489e-06 0)
(0.115832 5.43049e-06 0)
(0.115268 5.41521e-06 0)
(0.114729 5.51041e-06 0)
(0.114205 5.64548e-06 0)
(0.113697 5.64818e-06 0)
(0.113208 5.51363e-06 0)
(0.112737 5.66229e-06 0)
(0.112275 5.61669e-06 0)
(0.111833 5.58202e-06 0)
(0.111398 5.66426e-06 0)
(0.11098 5.51345e-06 0)
(0.11057 5.61008e-06 0)
(0.110174 5.41746e-06 0)
(0.109788 5.4881e-06 0)
(0.109413 5.38753e-06 0)
(0.109044 5.42374e-06 0)
(0.108688 5.25648e-06 0)
(0.108339 5.31297e-06 0)
(0.108 5.13833e-06 0)
(0.107668 5.14213e-06 0)
(0.107346 5.05307e-06 0)
(0.107029 5.03797e-06 0)
(0.10672 4.92764e-06 0)
(0.106419 4.88271e-06 0)
(0.106125 4.79869e-06 0)
(0.105837 4.74293e-06 0)
(0.105555 4.70654e-06 0)
(0.105279 4.60479e-06 0)
(0.10501 4.56684e-06 0)
(0.104745 4.48099e-06 0)
(0.104487 4.43537e-06 0)
(0.104233 4.36573e-06 0)
(0.103986 4.29389e-06 0)
(0.103742 4.27055e-06 0)
(0.103504 4.17014e-06 0)
(0.10327 4.139e-06 0)
(0.103042 4.04271e-06 0)
(0.102817 4.01623e-06 0)
(0.102597 3.93256e-06 0)
(0.102381 3.89267e-06 0)
(0.102169 3.82938e-06 0)
(0.101961 3.78818e-06 0)
(0.101756 3.71641e-06 0)
(0.101556 3.67238e-06 0)
(0.101358 3.61131e-06 0)
(0.101165 3.56094e-06 0)
(0.100975 3.50829e-06 0)
(0.100789 3.44845e-06 0)
(0.100605 3.41965e-06 0)
(0.100425 3.34942e-06 0)
(0.100248 3.32108e-06 0)
(0.100074 3.24923e-06 0)
(0.0999024 3.22959e-06 0)
(0.0997341 3.15302e-06 0)
(0.0995686 3.13701e-06 0)
(0.0994058 3.06291e-06 0)
(0.0992457 3.04663e-06 0)
(0.0990884 2.98039e-06 0)
(0.0989332 2.96058e-06 0)
(0.0987809 2.89617e-06 0)
(0.0986306 2.87833e-06 0)
(0.0984831 2.81112e-06 0)
(0.0983376 2.79798e-06 0)
(0.0981946 2.73637e-06 0)
(0.0980536 2.71775e-06 0)
(0.097915 2.66191e-06 0)
(0.0977783 2.63919e-06 0)
(0.0976439 2.59199e-06 0)
(0.0975113 2.56556e-06 0)
(0.0973808 2.52047e-06 0)
(0.0972522 2.49547e-06 0)
(0.0971256 2.45127e-06 0)
(0.0970008 2.42561e-06 0)
(0.0968778 2.38666e-06 0)
(0.0967568 2.35846e-06 0)
(0.0966372 2.32812e-06 0)
(0.0965197 2.29201e-06 0)
(0.0964036 2.27058e-06 0)
(0.0962894 2.22816e-06 0)
(0.0961765 2.20897e-06 0)
(0.0960655 2.16711e-06 0)
(0.0959559 2.15084e-06 0)
(0.0958479 2.10974e-06 0)
(0.0957413 2.09468e-06 0)
(0.0956363 2.05478e-06 0)
(0.0955327 2.03833e-06 0)
(0.0954305 2.00277e-06 0)
(0.0953297 1.98353e-06 0)
(0.0952303 1.95254e-06 0)
(0.0951322 1.93271e-06 0)
(0.0950354 1.90191e-06 0)
(0.0949399 1.88278e-06 0)
(0.0948457 1.85208e-06 0)
(0.0947528 1.83424e-06 0)
(0.0946611 1.80514e-06 0)
(0.0945706 1.78653e-06 0)
(0.0944812 1.76038e-06 0)
(0.0943931 1.73934e-06 0)
(0.094306 1.71788e-06 0)
(0.0942203 1.6935e-06 0)
(0.0941354 1.67683e-06 0)
(0.0940518 1.65034e-06 0)
(0.0939691 1.6352e-06 0)
(0.0938876 1.60843e-06 0)
(0.093807 1.59469e-06 0)
(0.0937275 1.56792e-06 0)
(0.0936489 1.55516e-06 0)
(0.0935715 1.52891e-06 0)
(0.0934949 1.5164e-06 0)
(0.0934193 1.49152e-06 0)
(0.0933447 1.47807e-06 0)
(0.093271 1.45582e-06 0)
(0.0931982 1.44118e-06 0)
(0.0931263 1.42086e-06 0)
(0.0930552 1.40622e-06 0)
(0.0929851 1.38596e-06 0)
(0.0929158 1.37206e-06 0)
(0.0928474 1.35192e-06 0)
(0.0927797 1.33901e-06 0)
(0.0927129 1.31885e-06 0)
(0.0926469 1.30608e-06 0)
(0.0925818 1.28751e-06 0)
(0.0925173 1.27407e-06 0)
(0.0924537 1.25659e-06 0)
(0.0923909 1.24237e-06 0)
(0.0923287 1.22811e-06 0)
(0.0922673 1.21194e-06 0)
(0.0922066 1.19878e-06 0)
(0.0921467 1.18255e-06 0)
(0.0920874 1.17072e-06 0)
(0.0920289 1.15436e-06 0)
(0.091971 1.14237e-06 0)
(0.0919138 1.12614e-06 0)
(0.0918573 1.11421e-06 0)
(0.0918015 1.09845e-06 0)
(0.0917463 1.08673e-06 0)
(0.0916917 1.0731e-06 0)
(0.0916378 1.06027e-06 0)
(0.0915845 1.04826e-06 0)
(0.0915318 1.03411e-06 0)
(0.0914796 1.02565e-06 0)
(0.0914282 1.0068e-06 0)
(0.0913771 1.00292e-06 0)
(0.091327 9.83029e-07 0)
(0.0912767 9.88963e-07 0)
(0.0912278 9.59775e-07 0)
(0.0911782 9.76524e-07 0)
(0.0911306 9.33427e-07 0)
(0.0910814 9.70432e-07 0)
(0.0910353 9.02437e-07 0)
(0.0909862 9.72143e-07 0)
(0.0909418 8.68464e-07 0)
(0.0908922 9.89812e-07 0)
(0.0908498 8.22756e-07 0)
(0.0907991 1.02155e-06 0)
(0.0907594 7.56433e-07 0)
(0.0907065 1.07888e-06 0)
(0.0906705 6.65613e-07 0)
(0.0906141 1.17878e-06 0)
(0.0905826 5.39824e-07 0)
(0.0905214 1.34287e-06 0)
(0.0904938 3.51974e-07 0)
(0.0904294 1.55335e-06 0)
(0.0904032 1.39469e-07 0)
(0.090336 1.81202e-06 0)
(0.0903141 -2.2855e-07 0)
(0.0902307 2.37509e-06 0)
(0.0902522 -2.13506e-06 0)
(0.0900589 1.04445e-05 0)
(0.971307 0.0731487 0)
(0.832589 0.0463969 0)
(0.671411 0.0180089 0)
(0.562236 0.00770755 0)
(0.499333 0.00400582 0)
(0.458861 0.00249343 0)
(0.430557 0.00167263 0)
(0.409974 0.00121762 0)
(0.393929 0.000938435 0)
(0.381189 0.000775765 0)
(0.370328 0.000649133 0)
(0.361502 0.000548556 0)
(0.353682 0.000483639 0)
(0.347064 0.000411224 0)
(0.341265 0.000358728 0)
(0.336204 0.000321839 0)
(0.33158 0.000292843 0)
(0.327465 0.000268802 0)
(0.323657 0.000248796 0)
(0.320219 0.000228213 0)
(0.317023 0.000213975 0)
(0.314075 0.000200608 0)
(0.311326 0.000189001 0)
(0.308754 0.000177108 0)
(0.306373 0.000166393 0)
(0.304118 0.000159327 0)
(0.301995 0.000151069 0)
(0.299984 0.000144932 0)
(0.298075 0.000137871 0)
(0.296267 0.000132288 0)
(0.294547 0.00012637 0)
(0.292903 0.000122128 0)
(0.291329 0.000117099 0)
(0.289831 0.000112735 0)
(0.288389 0.00010907 0)
(0.287005 0.000105241 0)
(0.285677 0.000101083 0)
(0.284404 9.82188e-05 0)
(0.283168 9.49158e-05 0)
(0.281989 9.18398e-05 0)
(0.28084 8.9445e-05 0)
(0.279736 8.64137e-05 0)
(0.278664 8.42914e-05 0)
(0.277631 8.1408e-05 0)
(0.276629 7.94271e-05 0)
(0.275658 7.72136e-05 0)
(0.274713 7.54166e-05 0)
(0.273799 7.30948e-05 0)
(0.272909 7.1557e-05 0)
(0.272046 6.93828e-05 0)
(0.271207 6.77893e-05 0)
(0.270391 6.60857e-05 0)
(0.269595 6.4669e-05 0)
(0.26882 6.29729e-05 0)
(0.268067 6.15534e-05 0)
(0.267331 6.00615e-05 0)
(0.266615 5.87087e-05 0)
(0.265916 5.75135e-05 0)
(0.265233 5.61266e-05 0)
(0.264567 5.49823e-05 0)
(0.263916 5.37219e-05 0)
(0.263281 5.26447e-05 0)
(0.262658 5.15107e-05 0)
(0.262052 5.0408e-05 0)
(0.261457 4.95155e-05 0)
(0.260876 4.84052e-05 0)
(0.260307 4.75208e-05 0)
(0.25975 4.64606e-05 0)
(0.259205 4.5643e-05 0)
(0.258672 4.46847e-05 0)
(0.258149 4.38688e-05 0)
(0.257637 4.30282e-05 0)
(0.257134 4.22818e-05 0)
(0.256642 4.14424e-05 0)
(0.256159 4.07077e-05 0)
(0.255686 3.99403e-05 0)
(0.255222 3.92237e-05 0)
(0.254766 3.85108e-05 0)
(0.25432 3.7793e-05 0)
(0.253881 3.71989e-05 0)
(0.25345 3.64979e-05 0)
(0.253027 3.59247e-05 0)
(0.252612 3.52378e-05 0)
(0.252204 3.47159e-05 0)
(0.251804 3.40432e-05 0)
(0.25141 3.35498e-05 0)
(0.251023 3.29143e-05 0)
(0.250643 3.24389e-05 0)
(0.25027 3.18556e-05 0)
(0.249902 3.14024e-05 0)
(0.249542 3.08331e-05 0)
(0.249186 3.0406e-05 0)
(0.248837 2.98464e-05 0)
(0.248493 2.94521e-05 0)
(0.248155 2.89223e-05 0)
(0.247823 2.85279e-05 0)
(0.247496 2.80372e-05 0)
(0.247173 2.76456e-05 0)
(0.246857 2.71977e-05 0)
(0.246544 2.6814e-05 0)
(0.246237 2.63784e-05 0)
(0.245935 2.60126e-05 0)
(0.245637 2.55915e-05 0)
(0.245344 2.52396e-05 0)
(0.245055 2.48473e-05 0)
(0.244771 2.44982e-05 0)
(0.244491 2.41446e-05 0)
(0.244215 2.37797e-05 0)
(0.243943 2.34686e-05 0)
(0.243675 2.30999e-05 0)
(0.243411 2.2802e-05 0)
(0.243151 2.24444e-05 0)
(0.242894 2.21652e-05 0)
(0.242641 2.18178e-05 0)
(0.242392 2.15522e-05 0)
(0.242146 2.12165e-05 0)
(0.241904 2.09532e-05 0)
(0.241665 2.0641e-05 0)
(0.24143 2.03769e-05 0)
(0.241198 2.00879e-05 0)
(0.240968 1.98336e-05 0)
(0.240743 1.95497e-05 0)
(0.24052 1.93041e-05 0)
(0.2403 1.90259e-05 0)
(0.240083 1.87918e-05 0)
(0.239869 1.8525e-05 0)
(0.239658 1.82957e-05 0)
(0.23945 1.80441e-05 0)
(0.239245 1.78131e-05 0)
(0.239042 1.75829e-05 0)
(0.238842 1.73474e-05 0)
(0.238644 1.71389e-05 0)
(0.23845 1.69041e-05 0)
(0.238257 1.67036e-05 0)
(0.238067 1.64727e-05 0)
(0.23788 1.62818e-05 0)
(0.237695 1.60554e-05 0)
(0.237512 1.58726e-05 0)
(0.237332 1.56523e-05 0)
(0.237154 1.5475e-05 0)
(0.236978 1.52635e-05 0)
(0.236804 1.50873e-05 0)
(0.236633 1.4889e-05 0)
(0.236464 1.47132e-05 0)
(0.236297 1.4526e-05 0)
(0.236131 1.43558e-05 0)
(0.235968 1.41712e-05 0)
(0.235807 1.40068e-05 0)
(0.235648 1.38262e-05 0)
(0.235491 1.36693e-05 0)
(0.235336 1.34915e-05 0)
(0.235183 1.33387e-05 0)
(0.235031 1.31697e-05 0)
(0.234882 1.30187e-05 0)
(0.234734 1.2856e-05 0)
(0.234588 1.27055e-05 0)
(0.234443 1.2557e-05 0)
(0.234301 1.24043e-05 0)
(0.23416 1.22627e-05 0)
(0.234021 1.2113e-05 0)
(0.233883 1.19777e-05 0)
(0.233747 1.18312e-05 0)
(0.233613 1.16993e-05 0)
(0.23348 1.15542e-05 0)
(0.233349 1.14245e-05 0)
(0.233219 1.12837e-05 0)
(0.233091 1.1159e-05 0)
(0.232964 1.10257e-05 0)
(0.232839 1.09025e-05 0)
(0.232715 1.07766e-05 0)
(0.232593 1.06545e-05 0)
(0.232471 1.0539e-05 0)
(0.232352 1.04102e-05 0)
(0.232233 1.03063e-05 0)
(0.232117 1.01855e-05 0)
(0.232 1.01093e-05 0)
(0.231887 9.97921e-06 0)
(0.231771 9.92814e-06 0)
(0.231661 9.77504e-06 0)
(0.231547 9.77001e-06 0)
(0.23144 9.5726e-06 0)
(0.231326 9.64261e-06 0)
(0.231223 9.38129e-06 0)
(0.231108 9.57274e-06 0)
(0.23101 9.18385e-06 0)
(0.230892 9.55342e-06 0)
(0.2308 8.94945e-06 0)
(0.230678 9.61422e-06 0)
(0.230594 8.67147e-06 0)
(0.230464 9.83924e-06 0)
(0.23039 8.30093e-06 0)
(0.230251 1.03816e-05 0)
(0.230184 7.75222e-06 0)
(0.230039 1.11018e-05 0)
(0.229975 7.28711e-06 0)
(0.229825 1.18414e-05 0)
(0.229765 7.03346e-06 0)
(0.229586 1.3038e-05 0)
(0.229586 4.02542e-06 0)
(0.229258 3.83467e-05 0)
(1.00819 0.065317 0)
(0.99085 0.0518141 0)
(0.927088 0.0301997 0)
(0.830988 0.0178219 0)
(0.75558 0.0112166 0)
(0.697507 0.00756774 0)
(0.652385 0.00535987 0)
(0.617033 0.00401764 0)
(0.588715 0.00314303 0)
(0.565654 0.00257517 0)
(0.546406 0.00214677 0)
(0.530281 0.00181198 0)
(0.516442 0.00157284 0)
(0.504532 0.00135296 0)
(0.494115 0.00118359 0)
(0.484966 0.00105622 0)
(0.476734 0.000952278 0)
(0.469413 0.000864712 0)
(0.462738 0.000791976 0)
(0.456707 0.000723922 0)
(0.451165 0.000671014 0)
(0.446086 0.000622913 0)
(0.441389 0.000581703 0)
(0.437028 0.000541905 0)
(0.433 0.00050661 0)
(0.42922 0.000479624 0)
(0.425683 0.000452193 0)
(0.422358 0.000429656 0)
(0.419223 0.000406607 0)
(0.416273 0.000387142 0)
(0.413475 0.000368417 0)
(0.410822 0.000352924 0)
(0.408298 0.000336857 0)
(0.405903 0.000322522 0)
(0.403614 0.000309992 0)
(0.401431 0.000297747 0)
(0.399339 0.000285342 0)
(0.397344 0.000275497 0)
(0.395419 0.000265225 0)
(0.393585 0.000255656 0)
(0.39181 0.00024764 0)
(0.390109 0.000238789 0)
(0.388465 0.000231643 0)
(0.386884 0.000223496 0)
(0.385356 0.000216979 0)
(0.383882 0.000210423 0)
(0.382453 0.000204618 0)
(0.381074 0.000198137 0)
(0.379735 0.000193059 0)
(0.37844 0.000187085 0)
(0.377185 0.00018214 0)
(0.375967 0.000177223 0)
(0.374783 0.000172868 0)
(0.373634 0.000168108 0)
(0.372518 0.000163921 0)
(0.371431 0.000159701 0)
(0.370376 0.000155767 0)
(0.369347 0.000152208 0)
(0.368345 0.000148397 0)
(0.36737 0.000145048 0)
(0.366418 0.00014156 0)
(0.365491 0.000138445 0)
(0.364585 0.00013528 0)
(0.363703 0.00013222 0)
(0.36284 0.000129566 0)
(0.361998 0.000126608 0)
(0.361175 0.000124048 0)
(0.360371 0.000121242 0)
(0.359585 0.000118865 0)
(0.358816 0.000116309 0)
(0.358065 0.000114003 0)
(0.357329 0.00011171 0)
(0.356609 0.000109613 0)
(0.355904 0.000107379 0)
(0.355214 0.000105343 0)
(0.354537 0.000103282 0)
(0.353875 0.000101328 0)
(0.353225 9.94033e-05 0)
(0.352589 9.74922e-05 0)
(0.351965 9.58105e-05 0)
(0.351354 9.39925e-05 0)
(0.350753 9.23884e-05 0)
(0.350165 9.06251e-05 0)
(0.349587 8.91372e-05 0)
(0.34902 8.74384e-05 0)
(0.348464 8.60246e-05 0)
(0.347917 8.44272e-05 0)
(0.347381 8.30711e-05 0)
(0.346854 8.15941e-05 0)
(0.346336 8.03178e-05 0)
(0.345828 7.88841e-05 0)
(0.345328 7.76801e-05 0)
(0.344837 7.62872e-05 0)
(0.344354 7.51623e-05 0)
(0.34388 7.38376e-05 0)
(0.343413 7.27382e-05 0)
(0.342955 7.15042e-05 0)
(0.342504 7.04293e-05 0)
(0.34206 6.92866e-05 0)
(0.341623 6.82536e-05 0)
(0.341194 6.71449e-05 0)
(0.340771 6.61592e-05 0)
(0.340355 6.50911e-05 0)
(0.339946 6.4149e-05 0)
(0.339543 6.31446e-05 0)
(0.339147 6.22222e-05 0)
(0.338756 6.12971e-05 0)
(0.338372 6.0364e-05 0)
(0.337993 5.95266e-05 0)
(0.33762 5.86083e-05 0)
(0.337252 5.78042e-05 0)
(0.336891 5.69164e-05 0)
(0.336534 5.61555e-05 0)
(0.336183 5.52956e-05 0)
(0.335837 5.45702e-05 0)
(0.335496 5.37409e-05 0)
(0.33516 5.30295e-05 0)
(0.334829 5.22516e-05 0)
(0.334502 5.155e-05 0)
(0.33418 5.08213e-05 0)
(0.333863 5.01511e-05 0)
(0.33355 4.94382e-05 0)
(0.333241 4.87914e-05 0)
(0.332937 4.80966e-05 0)
(0.332637 4.74785e-05 0)
(0.332341 4.68108e-05 0)
(0.33205 4.62101e-05 0)
(0.331762 4.55756e-05 0)
(0.331478 4.49804e-05 0)
(0.331198 4.43892e-05 0)
(0.330922 4.37952e-05 0)
(0.330649 4.32478e-05 0)
(0.33038 4.26644e-05 0)
(0.330114 4.2136e-05 0)
(0.329853 4.15656e-05 0)
(0.329594 4.10599e-05 0)
(0.329339 4.05029e-05 0)
(0.329087 4.00174e-05 0)
(0.328838 3.94764e-05 0)
(0.328593 3.90061e-05 0)
(0.328351 3.8486e-05 0)
(0.328111 3.8023e-05 0)
(0.327875 3.75307e-05 0)
(0.327642 3.70744e-05 0)
(0.327412 3.66062e-05 0)
(0.327185 3.61661e-05 0)
(0.326961 3.57068e-05 0)
(0.326739 3.52811e-05 0)
(0.32652 3.4833e-05 0)
(0.326304 3.44251e-05 0)
(0.32609 3.3986e-05 0)
(0.32588 3.35895e-05 0)
(0.325671 3.31695e-05 0)
(0.325466 3.27812e-05 0)
(0.325262 3.23758e-05 0)
(0.325062 3.19924e-05 0)
(0.324863 3.16151e-05 0)
(0.324667 3.12333e-05 0)
(0.324474 3.08716e-05 0)
(0.324282 3.0499e-05 0)
(0.324093 3.01512e-05 0)
(0.323907 2.97881e-05 0)
(0.323722 2.94505e-05 0)
(0.323539 2.9092e-05 0)
(0.323359 2.87614e-05 0)
(0.323181 2.84133e-05 0)
(0.323005 2.80958e-05 0)
(0.322831 2.77614e-05 0)
(0.322659 2.74527e-05 0)
(0.322488 2.71333e-05 0)
(0.322321 2.68328e-05 0)
(0.322154 2.65299e-05 0)
(0.32199 2.62283e-05 0)
(0.321827 2.59413e-05 0)
(0.321667 2.56657e-05 0)
(0.321507 2.54204e-05 0)
(0.321351 2.51526e-05 0)
(0.321193 2.49381e-05 0)
(0.321041 2.46577e-05 0)
(0.320884 2.44988e-05 0)
(0.320738 2.4185e-05 0)
(0.320582 2.41171e-05 0)
(0.32044 2.37539e-05 0)
(0.320283 2.38379e-05 0)
(0.320148 2.33473e-05 0)
(0.319988 2.36501e-05 0)
(0.31986 2.29126e-05 0)
(0.319695 2.35954e-05 0)
(0.319578 2.24431e-05 0)
(0.319404 2.3838e-05 0)
(0.319298 2.18541e-05 0)
(0.319113 2.46721e-05 0)
(0.319017 2.09937e-05 0)
(0.318823 2.59419e-05 0)
(0.318731 2.03677e-05 0)
(0.318531 2.71804e-05 0)
(0.318443 2.07652e-05 0)
(0.318212 2.88742e-05 0)
(0.318178 1.76071e-05 0)
(0.317808 6.83575e-05 0)
(1.0114 0.0502385 0)
(1.03997 0.0487475 0)
(1.02553 0.0348177 0)
(0.984215 0.0254169 0)
(0.930303 0.0186108 0)
(0.877823 0.0138923 0)
(0.829971 0.0105633 0)
(0.787804 0.00828052 0)
(0.751542 0.00664114 0)
(0.720515 0.00547665 0)
(0.694085 0.00458232 0)
(0.671329 0.00388248 0)
(0.651683 0.00335544 0)
(0.634543 0.00290215 0)
(0.619466 0.00254312 0)
(0.606132 0.0022615 0)
(0.594212 0.00202792 0)
(0.583573 0.00183143 0)
(0.573934 0.00166743 0)
(0.565216 0.00151951 0)
(0.557248 0.00139923 0)
(0.549965 0.00129173 0)
(0.543257 0.00119964 0)
(0.537055 0.00111343 0)
(0.53133 0.00103753 0)
(0.525984 0.000976144 0)
(0.521001 0.000916638 0)
(0.516334 0.000866188 0)
(0.511952 0.000816684 0)
(0.507841 0.000774117 0)
(0.503954 0.000734469 0)
(0.500284 0.000700031 0)
(0.496805 0.000666011 0)
(0.493512 0.000635427 0)
(0.490377 0.000608189 0)
(0.487398 0.000582437 0)
(0.484548 0.000557104 0)
(0.481838 0.000535742 0)
(0.479234 0.000514402 0)
(0.476755 0.000494551 0)
(0.474367 0.000477444 0)
(0.472081 0.000459522 0)
(0.469881 0.000444302 0)
(0.467768 0.000428132 0)
(0.465731 0.000414438 0)
(0.463771 0.00040108 0)
(0.461875 0.000388955 0)
(0.460048 0.000376181 0)
(0.458281 0.000365513 0)
(0.456573 0.000353852 0)
(0.454921 0.000343753 0)
(0.453322 0.000333948 0)
(0.45177 0.000325036 0)
(0.450266 0.000315707 0)
(0.448808 0.000307332 0)
(0.447391 0.000299038 0)
(0.446017 0.000291216 0)
(0.44468 0.000284071 0)
(0.44338 0.00027669 0)
(0.442116 0.000270038 0)
(0.440884 0.000263274 0)
(0.439686 0.000257115 0)
(0.438517 0.000250971 0)
(0.437381 0.000245036 0)
(0.43627 0.000239739 0)
(0.435188 0.000234114 0)
(0.434131 0.000229083 0)
(0.433101 0.000223776 0)
(0.432094 0.0002191 0)
(0.431111 0.00021425 0)
(0.43015 0.000209773 0)
(0.429211 0.000205381 0)
(0.428293 0.000201314 0)
(0.427394 0.000197093 0)
(0.426516 0.000193182 0)
(0.425656 0.000189275 0)
(0.424815 0.000185548 0)
(0.42399 0.000181901 0)
(0.423184 0.000178297 0)
(0.422394 0.000175045 0)
(0.421619 0.000171657 0)
(0.42086 0.000168576 0)
(0.420116 0.000165311 0)
(0.419387 0.000162436 0)
(0.418671 0.000159316 0)
(0.417969 0.000156584 0)
(0.417281 0.000153658 0)
(0.416606 0.000151046 0)
(0.415943 0.00014833 0)
(0.415292 0.000145883 0)
(0.414653 0.000143261 0)
(0.414025 0.000140953 0)
(0.413409 0.000138421 0)
(0.412803 0.000136257 0)
(0.412209 0.000133848 0)
(0.411624 0.000131755 0)
(0.41105 0.000129502 0)
(0.410485 0.000127469 0)
(0.40993 0.000125374 0)
(0.409384 0.000123436 0)
(0.408848 0.000121408 0)
(0.40832 0.00011956 0)
(0.407801 0.000117612 0)
(0.40729 0.00011585 0)
(0.406787 0.000114011 0)
(0.406293 0.000112297 0)
(0.405806 0.000110589 0)
(0.405328 0.000108882 0)
(0.404856 0.000107317 0)
(0.404392 0.000105657 0)
(0.403935 0.000104153 0)
(0.403485 0.000102552 0)
(0.403042 0.000101125 0)
(0.402606 9.95777e-05 0)
(0.402176 9.82162e-05 0)
(0.401752 9.67267e-05 0)
(0.401335 9.53988e-05 0)
(0.400924 9.39958e-05 0)
(0.400519 9.26966e-05 0)
(0.40012 9.13758e-05 0)
(0.399726 9.01379e-05 0)
(0.399339 8.88495e-05 0)
(0.398957 8.76567e-05 0)
(0.39858 8.64054e-05 0)
(0.398208 8.52643e-05 0)
(0.397842 8.40614e-05 0)
(0.397481 8.29562e-05 0)
(0.397125 8.18099e-05 0)
(0.396774 8.07231e-05 0)
(0.396428 7.96468e-05 0)
(0.396086 7.85729e-05 0)
(0.395749 7.75665e-05 0)
(0.395417 7.65195e-05 0)
(0.395089 7.55475e-05 0)
(0.394765 7.45271e-05 0)
(0.394446 7.35952e-05 0)
(0.394131 7.26015e-05 0)
(0.39382 7.17059e-05 0)
(0.393513 7.07423e-05 0)
(0.393211 6.98755e-05 0)
(0.392912 6.89485e-05 0)
(0.392617 6.80994e-05 0)
(0.392326 6.72181e-05 0)
(0.392038 6.63857e-05 0)
(0.391755 6.55449e-05 0)
(0.391475 6.47436e-05 0)
(0.391198 6.39214e-05 0)
(0.390925 6.31463e-05 0)
(0.390656 6.23453e-05 0)
(0.390389 6.16014e-05 0)
(0.390126 6.0819e-05 0)
(0.389867 6.00966e-05 0)
(0.38961 5.93459e-05 0)
(0.389357 5.86415e-05 0)
(0.389107 5.79168e-05 0)
(0.38886 5.72241e-05 0)
(0.388616 5.65431e-05 0)
(0.388375 5.58595e-05 0)
(0.388137 5.52057e-05 0)
(0.387901 5.45403e-05 0)
(0.387669 5.39105e-05 0)
(0.387439 5.32629e-05 0)
(0.387212 5.26525e-05 0)
(0.386988 5.20157e-05 0)
(0.386766 5.14202e-05 0)
(0.386547 5.08008e-05 0)
(0.38633 5.02289e-05 0)
(0.386116 4.96311e-05 0)
(0.385905 4.90782e-05 0)
(0.385696 4.85038e-05 0)
(0.385489 4.79702e-05 0)
(0.385284 4.74193e-05 0)
(0.385083 4.68961e-05 0)
(0.384882 4.63641e-05 0)
(0.384686 4.58893e-05 0)
(0.384489 4.54084e-05 0)
(0.384298 4.4968e-05 0)
(0.384103 4.45205e-05 0)
(0.383917 4.40917e-05 0)
(0.383725 4.37002e-05 0)
(0.383545 4.32678e-05 0)
(0.383353 4.29677e-05 0)
(0.383179 4.25249e-05 0)
(0.382987 4.2384e-05 0)
(0.382821 4.18522e-05 0)
(0.382626 4.19403e-05 0)
(0.382468 4.1181e-05 0)
(0.382268 4.16889e-05 0)
(0.382121 4.04997e-05 0)
(0.381912 4.18702e-05 0)
(0.381778 3.9702e-05 0)
(0.381558 4.28792e-05 0)
(0.381435 3.86138e-05 0)
(0.381203 4.46636e-05 0)
(0.381087 3.78695e-05 0)
(0.380847 4.64897e-05 0)
(0.380735 3.91221e-05 0)
(0.380465 4.85689e-05 0)
(0.3804 3.65825e-05 0)
(0.380001 9.89504e-05 0)
(1.00996 0.0450828 0)
(1.05306 0.0485508 0)
(1.05269 0.0361582 0)
(1.04253 0.0289504 0)
(1.01961 0.0233626 0)
(0.988613 0.0190737 0)
(0.954419 0.0156877 0)
(0.918982 0.0130651 0)
(0.884521 0.0109451 0)
(0.851958 0.00927043 0)
(0.82229 0.00788841 0)
(0.795469 0.00676231 0)
(0.771508 0.00586892 0)
(0.750115 0.0051102 0)
(0.73101 0.00449673 0)
(0.713881 0.00400104 0)
(0.69851 0.00358209 0)
(0.684691 0.00322935 0)
(0.672155 0.00293338 0)
(0.66077 0.00266911 0)
(0.650386 0.00244933 0)
(0.640875 0.00225499 0)
(0.632126 0.00208732 0)
(0.624044 0.00193327 0)
(0.61658 0.00179777 0)
(0.609626 0.00168452 0)
(0.603159 0.00157731 0)
(0.597112 0.0014851 0)
(0.591448 0.00139651 0)
(0.586144 0.00131978 0)
(0.581139 0.00124923 0)
(0.576423 0.00118646 0)
(0.571965 0.00112613 0)
(0.567751 0.00107171 0)
(0.56375 0.00102267 0)
(0.559955 0.000977154 0)
(0.556332 0.000933196 0)
(0.552891 0.000894857 0)
(0.549595 0.000857458 0)
(0.54646 0.000822741 0)
(0.543448 0.000792325 0)
(0.54057 0.000761334 0)
(0.537805 0.00073438 0)
(0.535153 0.000706854 0)
(0.532602 0.000682775 0)
(0.53015 0.000659592 0)
(0.527785 0.000638365 0)
(0.525508 0.000616703 0)
(0.52331 0.000597981 0)
(0.521188 0.000578338 0)
(0.519139 0.000560936 0)
(0.517157 0.000544202 0)
(0.515239 0.000528784 0)
(0.513381 0.00051308 0)
(0.511583 0.000498804 0)
(0.509837 0.000484814 0)
(0.508146 0.000471536 0)
(0.506503 0.00045934 0)
(0.504908 0.000447012 0)
(0.503358 0.000435742 0)
(0.50185 0.000424448 0)
(0.500385 0.000414043 0)
(0.498957 0.000403785 0)
(0.497569 0.000393876 0)
(0.496216 0.000384891 0)
(0.494898 0.000375614 0)
(0.493612 0.000367166 0)
(0.492359 0.000358455 0)
(0.491137 0.000350608 0)
(0.489944 0.000342632 0)
(0.488779 0.00033518 0)
(0.487642 0.000327919 0)
(0.486531 0.00032115 0)
(0.485444 0.000314235 0)
(0.484383 0.000307771 0)
(0.483345 0.000301364 0)
(0.48233 0.000295234 0)
(0.481336 0.000289262 0)
(0.480365 0.000283376 0)
(0.479413 0.000277987 0)
(0.478482 0.000272494 0)
(0.47757 0.000267413 0)
(0.476676 0.00026214 0)
(0.4758 0.000257388 0)
(0.474941 0.000252377 0)
(0.4741 0.000247868 0)
(0.473275 0.000243175 0)
(0.472466 0.000238874 0)
(0.471673 0.000234511 0)
(0.470894 0.00023049 0)
(0.47013 0.000226297 0)
(0.46938 0.000222507 0)
(0.468644 0.000218474 0)
(0.467921 0.000214914 0)
(0.467212 0.000211079 0)
(0.466514 0.000207659 0)
(0.46583 0.000204065 0)
(0.465157 0.000200757 0)
(0.464496 0.000197405 0)
(0.463846 0.000194269 0)
(0.463208 0.000191033 0)
(0.46258 0.000188042 0)
(0.461963 0.000184941 0)
(0.461356 0.000182094 0)
(0.460759 0.000179164 0)
(0.460172 0.000176406 0)
(0.459594 0.000173671 0)
(0.459026 0.000170951 0)
(0.458467 0.000168424 0)
(0.457916 0.000165798 0)
(0.457375 0.000163374 0)
(0.456842 0.000160845 0)
(0.456316 0.000158541 0)
(0.4558 0.000156103 0)
(0.455291 0.000153904 0)
(0.45479 0.00015156 0)
(0.454296 0.000149424 0)
(0.45381 0.000147211 0)
(0.453331 0.000145131 0)
(0.452859 0.000143042 0)
(0.452394 0.000141062 0)
(0.451937 0.000139029 0)
(0.451485 0.000137124 0)
(0.45104 0.000135155 0)
(0.450602 0.000133332 0)
(0.45017 0.000131439 0)
(0.449744 0.000129678 0)
(0.449323 0.000127871 0)
(0.448909 0.000126147 0)
(0.448501 0.000124444 0)
(0.448098 0.000122751 0)
(0.447701 0.000121148 0)
(0.44731 0.000119505 0)
(0.446923 0.000117958 0)
(0.446542 0.00011636 0)
(0.446166 0.000114876 0)
(0.445795 0.000113323 0)
(0.445429 0.000111896 0)
(0.445068 0.000110392 0)
(0.444712 0.000109012 0)
(0.444361 0.000107565 0)
(0.444014 0.000106217 0)
(0.443671 0.000104838 0)
(0.443333 0.000103522 0)
(0.443 0.000102203 0)
(0.442671 0.000100937 0)
(0.442346 9.9651e-05 0)
(0.442025 9.84268e-05 0)
(0.441708 9.71754e-05 0)
(0.441395 9.59991e-05 0)
(0.441086 9.47797e-05 0)
(0.440781 9.36386e-05 0)
(0.44048 9.24661e-05 0)
(0.440183 9.13564e-05 0)
(0.439889 9.02253e-05 0)
(0.439599 8.91367e-05 0)
(0.439313 8.80673e-05 0)
(0.43903 8.69988e-05 0)
(0.43875 8.59718e-05 0)
(0.438474 8.4934e-05 0)
(0.438201 8.39434e-05 0)
(0.437932 8.29337e-05 0)
(0.437665 8.1975e-05 0)
(0.437402 8.09859e-05 0)
(0.437142 8.00532e-05 0)
(0.436885 7.90901e-05 0)
(0.436631 7.8194e-05 0)
(0.43638 7.72627e-05 0)
(0.436132 7.63986e-05 0)
(0.435887 7.55005e-05 0)
(0.435645 7.46708e-05 0)
(0.435405 7.38046e-05 0)
(0.435169 7.30021e-05 0)
(0.434933 7.21583e-05 0)
(0.434703 7.143e-05 0)
(0.434472 7.06436e-05 0)
(0.434248 6.9983e-05 0)
(0.434021 6.92323e-05 0)
(0.433802 6.8619e-05 0)
(0.433578 6.79201e-05 0)
(0.433366 6.73458e-05 0)
(0.433143 6.67308e-05 0)
(0.432938 6.62014e-05 0)
(0.432715 6.574e-05 0)
(0.432518 6.5184e-05 0)
(0.432292 6.49484e-05 0)
(0.432106 6.42163e-05 0)
(0.431875 6.44202e-05 0)
(0.431699 6.32755e-05 0)
(0.43146 6.44633e-05 0)
(0.431298 6.22483e-05 0)
(0.431047 6.55539e-05 0)
(0.430898 6.09695e-05 0)
(0.430635 6.77502e-05 0)
(0.430496 6.01638e-05 0)
(0.43022 7.03178e-05 0)
(0.430086 6.23002e-05 0)
(0.429782 7.28269e-05 0)
(0.42969 6.0964e-05 0)
(0.429264 0.000131606 0)
(1.00868 0.0410963 0)
(1.05097 0.0471198 0)
(1.05922 0.0351973 0)
(1.05737 0.0295429 0)
(1.05143 0.0253031 0)
(1.03898 0.0217775 0)
(1.02199 0.0190034 0)
(1.00102 0.0167633 0)
(0.977516 0.0147754 0)
(0.952106 0.0130538 0)
(0.926161 0.0114851 0)
(0.900527 0.0101021 0)
(0.875966 0.00891868 0)
(0.852905 0.00786977 0)
(0.831573 0.00698778 0)
(0.811906 0.00624947 0)
(0.793908 0.00561005 0)
(0.777479 0.00506576 0)
(0.762432 0.00460384 0)
(0.748638 0.00419124 0)
(0.736007 0.00384157 0)
(0.724377 0.00353352 0)
(0.713655 0.00326602 0)
(0.703726 0.00302212 0)
(0.694542 0.00280682 0)
(0.685991 0.00262372 0)
(0.678032 0.00245258 0)
(0.670593 0.00230378 0)
(0.663631 0.00216266 0)
(0.65711 0.00203979 0)
(0.650965 0.00192729 0)
(0.645182 0.00182608 0)
(0.63972 0.0017303 0)
(0.634562 0.00164367 0)
(0.629671 0.00156503 0)
(0.625037 0.00149285 0)
(0.62062 0.00142389 0)
(0.616427 0.00136254 0)
(0.61242 0.00130355 0)
(0.60861 0.00124887 0)
(0.604956 0.0012004 0)
(0.601468 0.00115186 0)
(0.598124 0.0011091 0)
(0.594918 0.00106644 0)
(0.591839 0.00102841 0)
(0.588883 0.000992024 0)
(0.586037 0.000958583 0)
(0.583299 0.000925129 0)
(0.58066 0.000895601 0)
(0.578116 0.000865415 0)
(0.57566 0.00083833 0)
(0.573288 0.000812374 0)
(0.570996 0.000788296 0)
(0.568778 0.000764221 0)
(0.566632 0.000742119 0)
(0.564552 0.000720624 0)
(0.562539 0.000700161 0)
(0.560586 0.00068129 0)
(0.55869 0.000662491 0)
(0.556851 0.000645147 0)
(0.555063 0.000627932 0)
(0.553327 0.000611954 0)
(0.551637 0.000596325 0)
(0.549996 0.00058123 0)
(0.548397 0.000567409 0)
(0.546841 0.000553394 0)
(0.545325 0.000540485 0)
(0.543848 0.000527375 0)
(0.542408 0.000515403 0)
(0.541004 0.000503387 0)
(0.539635 0.000492079 0)
(0.538298 0.000481108 0)
(0.536994 0.000470831 0)
(0.535719 0.000460449 0)
(0.534475 0.000450693 0)
(0.533258 0.000441073 0)
(0.532069 0.000431852 0)
(0.530907 0.000422898 0)
(0.52977 0.000414088 0)
(0.528658 0.00040595 0)
(0.52757 0.000397765 0)
(0.526505 0.000390116 0)
(0.525462 0.000382287 0)
(0.52444 0.000375127 0)
(0.52344 0.000367716 0)
(0.52246 0.000360934 0)
(0.521499 0.000354001 0)
(0.520557 0.000347545 0)
(0.519635 0.00034109 0)
(0.518729 0.000335063 0)
(0.517841 0.000328882 0)
(0.51697 0.000323204 0)
(0.516116 0.000317279 0)
(0.515276 0.000311943 0)
(0.514453 0.000306314 0)
(0.513645 0.00030121 0)
(0.512851 0.000295926 0)
(0.512072 0.000291004 0)
(0.511306 0.000286072 0)
(0.510554 0.000281419 0)
(0.509815 0.000276668 0)
(0.509089 0.000272235 0)
(0.508375 0.000267691 0)
(0.507674 0.000263476 0)
(0.506984 0.000259178 0)
(0.506306 0.000255108 0)
(0.505638 0.000251085 0)
(0.504983 0.000247098 0)
(0.504337 0.000243364 0)
(0.503702 0.00023953 0)
(0.503077 0.000235952 0)
(0.502463 0.000232267 0)
(0.501858 0.000228862 0)
(0.501262 0.000225316 0)
(0.500676 0.000222068 0)
(0.500099 0.000218663 0)
(0.49953 0.000215516 0)
(0.498971 0.000212297 0)
(0.49842 0.000209243 0)
(0.497877 0.000206198 0)
(0.497342 0.000203294 0)
(0.496816 0.000200336 0)
(0.496297 0.000197546 0)
(0.495785 0.000194688 0)
(0.495282 0.000192017 0)
(0.494785 0.000189271 0)
(0.494296 0.000186692 0)
(0.493813 0.00018407 0)
(0.493338 0.000181555 0)
(0.492869 0.000179075 0)
(0.492407 0.000176616 0)
(0.491951 0.000174274 0)
(0.491502 0.000171894 0)
(0.491059 0.000169636 0)
(0.490622 0.000167326 0)
(0.490191 0.000165158 0)
(0.489766 0.000162917 0)
(0.489346 0.000160832 0)
(0.488933 0.000158664 0)
(0.488525 0.000156649 0)
(0.488122 0.000154564 0)
(0.487724 0.0001526 0)
(0.487332 0.000150609 0)
(0.486945 0.000148696 0)
(0.486564 0.00014679 0)
(0.486187 0.000144951 0)
(0.485815 0.000143095 0)
(0.485448 0.000141318 0)
(0.485085 0.000139515 0)
(0.484727 0.000137806 0)
(0.484374 0.000136052 0)
(0.484025 0.000134395 0)
(0.483681 0.000132706 0)
(0.483341 0.000131098 0)
(0.483005 0.00012947 0)
(0.482673 0.000127896 0)
(0.482346 0.00012635 0)
(0.482023 0.00012481 0)
(0.481703 0.000123325 0)
(0.481387 0.000121832 0)
(0.481076 0.0001204 0)
(0.480768 0.000118947 0)
(0.480464 0.000117561 0)
(0.480163 0.000116143 0)
(0.479866 0.000114798 0)
(0.479572 0.000113417 0)
(0.479283 0.000112124 0)
(0.478996 0.000110787 0)
(0.478713 0.000109542 0)
(0.478433 0.000108249 0)
(0.478156 0.000107057 0)
(0.477882 0.000105807 0)
(0.477613 0.000104664 0)
(0.477344 0.000103441 0)
(0.477081 0.0001024 0)
(0.476818 0.00010124 0)
(0.476562 0.000100304 0)
(0.476303 9.91827e-05 0)
(0.476053 9.83383e-05 0)
(0.475798 9.72638e-05 0)
(0.475555 9.65098e-05 0)
(0.475302 9.55088e-05 0)
(0.475067 9.48643e-05 0)
(0.474814 9.40054e-05 0)
(0.474589 9.34107e-05 0)