/*--------------------------------*- C++ -*----------------------------------*\
  =========                 |
  \\      /  F ield         | OpenFOAM: The Open Source CFD Toolbox
   \\    /   O peration     | Website:  https://openfoam.org
    \\  /    A nd           | Version:  12
     \\/     M anipulation  |
\*---------------------------------------------------------------------------*/
FoamFile
{
    format      ascii;
    class       volScalarField;
    location    "1000";
    object      epsilon;
}
// * * * * * * * * * * * * * * * * * * * * * * * * * * * * * * * * * * * * * //

dimensions      [0 2 -3 0 0 0 0];

internalField   nonuniform List<scalar> 
20000
(
0.0755144
0.0283662
0.0314208
0.0419341
0.0488306
0.0543262
0.0597845
0.0655496
0.0703313
0.074754
0.0777183
0.0809278
0.0829886
0.0850519
0.0868105
0.088417
0.0896387
0.090697
0.0915368
0.0922994
0.0928716
0.0933544
0.0937346
0.0940367
0.0942888
0.0944529
0.0945737
0.0946472
0.0946665
0.0946561
0.0946244
0.0945565
0.0944625
0.0943536
0.0942215
0.0940763
0.0939243
0.0937595
0.0935785
0.0933968
0.0932014
0.0930042
0.092799
0.0925914
0.0923819
0.0921689
0.0919515
0.091735
0.0915142
0.0912958
0.0910753
0.090857
0.0906356
0.0904166
0.0901991
0.0899825
0.0897667
0.0895522
0.0893396
0.0891285
0.0889189
0.0887111
0.0885047
0.0883009
0.0880976
0.0878977
0.0876991
0.0875034
0.0873091
0.0871173
0.0869272
0.0867396
0.0865539
0.0863704
0.0861891
0.08601
0.0858329
0.0856582
0.0854855
0.0853148
0.0851466
0.0849801
0.0848159
0.0846536
0.0844933
0.0843351
0.0841788
0.0840247
0.0838723
0.083722
0.0835735
0.083427
0.0832822
0.0831392
0.0829982
0.0828588
0.0827213
0.0825854
0.0824515
0.0823191
0.0821885
0.0820595
0.0819321
0.0818064
0.0816822
0.0815597
0.0814386
0.0813192
0.0812011
0.0810847
0.0809695
0.0808561
0.0807437
0.0806331
0.0805236
0.0804157
0.080309
0.0802037
0.0800996
0.079997
0.0798954
0.0797953
0.0796963
0.0795986
0.079502
0.0794067
0.0793125
0.0792195
0.0791277
0.0790369
0.0789473
0.0788587
0.0787712
0.0786847
0.0785994
0.078515
0.0784317
0.0783493
0.078268
0.0781876
0.0781083
0.0780298
0.0779523
0.0778757
0.0778001
0.0777253
0.0776515
0.0775784
0.0775063
0.077435
0.0773646
0.077295
0.0772261
0.0771582
0.0770911
0.0770246
0.0769589
0.0768942
0.0768301
0.0767667
0.076704
0.0766421
0.076581
0.0765205
0.0764607
0.0764016
0.0763432
0.0762855
0.0762284
0.0761722
0.0761165
0.0760615
0.0760071
0.0759534
0.0759001
0.0758476
0.0757959
0.0757448
0.0756942
0.0756439
0.0755945
0.075545
0.0754968
0.0754476
0.075401
0.075352
0.0753073
0.0752571
0.075215
0.0751623
0.0751253
0.0750675
0.0750376
0.0749736
0.0749475
0.0748833
0.0748568
0.0747903
0.0747683
0.0746653
0.0279445
0.0395263
0.0599293
0.0773103
0.0831692
0.0855971
0.0875915
0.0899552
0.0912859
0.0923874
0.0922834
0.0924494
0.0920199
0.091598
0.0911216
0.0906852
0.090074
0.0894582
0.088776
0.0881365
0.0874448
0.0867662
0.0860862
0.0854129
0.0847672
0.0841132
0.0834755
0.082851
0.0822295
0.0816259
0.0810406
0.0804639
0.0798975
0.0793491
0.0788095
0.0782847
0.0777751
0.0772791
0.076789
0.0763172
0.0758517
0.0754003
0.0749576
0.0745263
0.0741063
0.0736961
0.0732935
0.072902
0.0725174
0.0721434
0.071777
0.0714202
0.0710692
0.0707268
0.0703926
0.0700656
0.0697455
0.0694323
0.069126
0.0688261
0.0685322
0.0682448
0.0679626
0.067687
0.0674158
0.067151
0.066891
0.0666366
0.0663867
0.066142
0.0659017
0.0656663
0.0654351
0.0652083
0.0649858
0.0647674
0.064553
0.0643426
0.064136
0.063933
0.0637339
0.0635382
0.0633459
0.063157
0.0629713
0.062789
0.0626096
0.0624334
0.0622601
0.0620899
0.0619223
0.0617576
0.0615956
0.0614361
0.0612794
0.0611251
0.0609734
0.060824
0.0606771
0.0605324
0.0603901
0.0602499
0.0601119
0.0599761
0.0598423
0.0597107
0.0595809
0.0594532
0.0593273
0.0592035
0.0590813
0.058961
0.0588424
0.0587257
0.0586106
0.0584972
0.0583854
0.0582753
0.0581666
0.0580596
0.0579541
0.05785
0.0577474
0.0576463
0.0575466
0.0574483
0.0573513
0.0572556
0.0571613
0.0570682
0.0569765
0.0568859
0.0567966
0.0567084
0.0566215
0.0565356
0.056451
0.0563674
0.056285
0.0562036
0.0561234
0.0560441
0.0559659
0.0558887
0.0558125
0.0557373
0.055663
0.0555897
0.0555174
0.0554459
0.0553753
0.0553057
0.0552369
0.055169
0.0551019
0.0550357
0.0549702
0.0549056
0.0548418
0.0547788
0.0547165
0.054655
0.0545943
0.0545343
0.0544749
0.0544163
0.0543585
0.0543013
0.0542448
0.054189
0.054134
0.0540795
0.0540257
0.0539726
0.0539201
0.053868
0.0538169
0.0537661
0.0537164
0.0536664
0.0536179
0.0535686
0.0535216
0.0534725
0.0534271
0.0533781
0.0533348
0.0532847
0.053244
0.0531918
0.0531552
0.0530993
0.0530679
0.0530078
0.0529789
0.0529185
0.0528892
0.0528261
0.0527996
0.0527179
0.00616107
0.0183349
0.0321126
0.0491505
0.0621117
0.0722249
0.0795355
0.0850646
0.0882571
0.0902948
0.0907735
0.0909293
0.0905359
0.0898446
0.089013
0.0881597
0.0871701
0.086147
0.0850868
0.0840694
0.0830392
0.0820361
0.0810555
0.080102
0.0791904
0.0782985
0.0774362
0.0766063
0.0757981
0.0750216
0.0742748
0.0735517
0.0728511
0.0721779
0.0715247
0.0708957
0.070288
0.0697023
0.0691311
0.0685826
0.0680485
0.0675326
0.0670319
0.0665464
0.0660763
0.0656201
0.0651762
0.064746
0.0643268
0.0639203
0.0635245
0.0631405
0.0627654
0.0624007
0.062046
0.0617004
0.0613635
0.0610353
0.0607152
0.0604032
0.0600983
0.0598011
0.0595105
0.0592272
0.0589498
0.0586792
0.0584146
0.0581561
0.0579032
0.0576558
0.0574138
0.057177
0.0569452
0.0567182
0.0564961
0.0562784
0.0560652
0.0558564
0.0556517
0.055451
0.0552544
0.0550616
0.0548725
0.054687
0.0545049
0.0543264
0.0541511
0.0539792
0.0538103
0.0536446
0.0534818
0.0533219
0.0531649
0.0530105
0.052859
0.05271
0.0525636
0.0524197
0.0522783
0.0521392
0.0520025
0.0518681
0.0517358
0.0516058
0.0514778
0.0513519
0.051228
0.0511062
0.0509862
0.0508682
0.050752
0.0506376
0.0505249
0.0504141
0.0503049
0.0501973
0.0500914
0.0499871
0.0498844
0.0497832
0.0496835
0.0495852
0.0494884
0.049393
0.049299
0.0492063
0.049115
0.049025
0.0489362
0.0488487
0.0487625
0.0486774
0.0485936
0.0485108
0.0484293
0.0483488
0.0482695
0.0481912
0.048114
0.0480379
0.0479628
0.0478886
0.0478155
0.0477433
0.0476722
0.0476019
0.0475326
0.0474641
0.0473966
0.0473299
0.0472642
0.0471992
0.0471351
0.0470718
0.0470093
0.0469476
0.0468867
0.0468266
0.0467672
0.0467086
0.0466506
0.0465934
0.046537
0.0464812
0.0464261
0.0463717
0.0463179
0.0462648
0.0462124
0.0461606
0.0461094
0.0460589
0.046009
0.0459596
0.0459109
0.0458626
0.0458152
0.0457681
0.0457219
0.0456756
0.0456306
0.045585
0.0455413
0.0454961
0.0454539
0.0454089
0.0453683
0.045323
0.0452844
0.0452378
0.0452023
0.0451533
0.0451221
0.0450699
0.0450412
0.0449884
0.0449597
0.044906
0.0448778
0.0448171
0.00171954
0.00660897
0.0120992
0.0206255
0.0298594
0.0397263
0.0490317
0.0575195
0.0640643
0.0691461
0.0723557
0.0746206
0.0758929
0.0765423
0.0766981
0.0765939
0.076232
0.0756589
0.0749637
0.0742226
0.0734303
0.0726082
0.0717774
0.0709448
0.070129
0.0693223
0.0685289
0.0677578
0.0670023
0.0662713
0.0655633
0.0648769
0.0642102
0.0635672
0.062943
0.0623412
0.0617589
0.0611973
0.0606505
0.0601244
0.0596133
0.0591192
0.0586406
0.0581765
0.0577276
0.0572921
0.0568694
0.0564596
0.0560613
0.0556751
0.0552997
0.0549355
0.0545807
0.0542359
0.0539009
0.0535749
0.0532574
0.0529485
0.0526475
0.0523545
0.0520685
0.05179
0.051518
0.051253
0.050994
0.0507415
0.0504949
0.0502541
0.0500188
0.0497889
0.0495642
0.0493445
0.0491297
0.0489195
0.0487139
0.0485127
0.0483158
0.048123
0.0479342
0.0477494
0.0475683
0.0473909
0.047217
0.0470466
0.0468795
0.0467157
0.046555
0.0463974
0.0462428
0.0460911
0.0459422
0.0457961
0.0456526
0.0455118
0.0453735
0.0452377
0.0451042
0.0449731
0.0448444
0.0447179
0.0445935
0.0444713
0.0443512
0.0442331
0.0441169
0.0440027
0.0438903
0.0437799
0.0436712
0.0435643
0.043459
0.0433555
0.0432536
0.0431533
0.0430546
0.0429575
0.0428618
0.0427676
0.0426748
0.0425835
0.0424936
0.042405
0.0423177
0.0422317
0.042147
0.0420635
0.0419813
0.0419002
0.0418204
0.0417417
0.0416641
0.0415876
0.0415122
0.0414379
0.0413646
0.0412923
0.0412211
0.0411508
0.0410815
0.0410131
0.0409457
0.0408792
0.0408136
0.0407489
0.0406851
0.0406221
0.04056
0.0404986
0.0404381
0.0403784
0.0403195
0.0402614
0.040204
0.0401473
0.0400914
0.0400362
0.0399817
0.0399279
0.0398748
0.0398224
0.0397706
0.0397194
0.039669
0.0396191
0.0395699
0.0395212
0.0394732
0.0394258
0.039379
0.0393327
0.0392871
0.039242
0.0391974
0.0391534
0.0391099
0.0390669
0.0390245
0.0389825
0.0389413
0.0389001
0.0388599
0.0388194
0.0387802
0.0387404
0.0387023
0.0386629
0.0386262
0.0385868
0.0385515
0.0385115
0.0384787
0.0384371
0.0384076
0.0383638
0.0383371
0.0382922
0.0382661
0.0382213
0.0381959
0.0381471
0.000874538
0.00258678
0.00465693
0.00794279
0.0121184
0.017267
0.0230032
0.029515
0.0359488
0.0422987
0.0476654
0.0521888
0.0556601
0.058249
0.0600745
0.0613596
0.0621556
0.0625852
0.0627144
0.0626599
0.0624672
0.062127
0.0617129
0.0612328
0.0607218
0.0601835
0.0596191
0.0590489
0.0584717
0.0578975
0.0573303
0.0567701
0.0562175
0.0556776
0.0551478
0.054632
0.0541289
0.0536404
0.0531623
0.0526993
0.052248
0.0518095
0.0513837
0.0509694
0.0505677
0.050177
0.0497973
0.0494282
0.0490692
0.0487205
0.0483812
0.0480516
0.0477305
0.0474181
0.0471143
0.0468186
0.0465304
0.04625
0.0459766
0.0457104
0.0454505
0.0451974
0.0449503
0.0447093
0.044474
0.0442445
0.0440204
0.0438015
0.0435878
0.0433789
0.0431747
0.0429751
0.04278
0.0425892
0.0424026
0.0422199
0.0420412
0.0418663
0.041695
0.0415273
0.0413632
0.0412023
0.0410447
0.0408903
0.0407389
0.0405905
0.040445
0.0403023
0.0401624
0.0400251
0.0398904
0.0397582
0.0396285
0.0395012
0.0393762
0.0392534
0.0391329
0.0390145
0.0388982
0.038784
0.0386718
0.0385615
0.0384531
0.0383465
0.0382417
0.0381388
0.0380375
0.0379379
0.03784
0.0377437
0.0376489
0.0375557
0.0374639
0.0373736
0.0372848
0.0371973
0.0371113
0.0370265
0.0369431
0.036861
0.0367801
0.0367004
0.036622
0.0365447
0.0364686
0.0363936
0.0363198
0.036247
0.0361753
0.0361046
0.0360349
0.0359663
0.0358986
0.0358319
0.0357662
0.0357013
0.0356374
0.0355744
0.0355123
0.035451
0.0353905
0.0353309
0.0352722
0.0352142
0.035157
0.0351005
0.0350449
0.0349899
0.0349358
0.0348823
0.0348295
0.0347775
0.0347261
0.0346754
0.0346253
0.0345759
0.0345271
0.034479
0.0344315
0.0343846
0.0343383
0.0342925
0.0342474
0.0342028
0.0341588
0.0341153
0.0340724
0.03403
0.0339882
0.0339468
0.033906
0.0338657
0.0338259
0.0337866
0.0337478
0.0337094
0.0336716
0.0336341
0.0335972
0.0335606
0.0335245
0.0334886
0.0334535
0.0334183
0.033384
0.0333494
0.0333161
0.0332817
0.0332497
0.0332151
0.0331849
0.0331494
0.0331219
0.0330847
0.03306
0.0330217
0.0329983
0.03296
0.0329381
0.0328967
0.000656669
0.00132175
0.00216772
0.00342226
0.00503568
0.00723154
0.00981255
0.0131036
0.0168128
0.0211502
0.0256768
0.0302698
0.0345671
0.0383893
0.0416055
0.0442715
0.0463759
0.0480023
0.0492029
0.0500746
0.0506747
0.0510436
0.0512406
0.0512808
0.0512329
0.0511009
0.050884
0.0506225
0.0503183
0.0499855
0.0496368
0.0492695
0.0488907
0.0485076
0.0481199
0.0477327
0.0473479
0.0469672
0.0465889
0.0462171
0.0458509
0.0454908
0.0451384
0.0447926
0.0444549
0.0441243
0.0438012
0.0434855
0.043177
0.042876
0.0425821
0.0422955
0.0420156
0.0417424
0.0414761
0.0412162
0.0409624
0.040715
0.0404733
0.0402376
0.0400072
0.0397824
0.0395627
0.0393482
0.0391386
0.0389338
0.0387337
0.0385382
0.0383471
0.0381601
0.0379773
0.0377985
0.0376237
0.0374525
0.037285
0.0371211
0.0369606
0.0368035
0.0366496
0.0364989
0.0363512
0.0362066
0.0360648
0.0359259
0.0357896
0.035656
0.035525
0.0353966
0.0352706
0.0351469
0.0350256
0.0349066
0.0347897
0.034675
0.0345623
0.0344518
0.0343431
0.0342365
0.0341317
0.0340287
0.0339276
0.0338282
0.0337305
0.0336345
0.0335401
0.0334473
0.033356
0.0332663
0.033178
0.0330912
0.0330058
0.0329218
0.0328391
0.0327577
0.0326777
0.0325989
0.0325213
0.032445
0.0323698
0.0322958
0.032223
0.0321512
0.0320806
0.0320109
0.0319424
0.0318749
0.0318083
0.0317428
0.0316782
0.0316145
0.0315518
0.03149
0.031429
0.031369
0.0313098
0.0312514
0.0311939
0.0311371
0.0310812
0.031026
0.0309716
0.030918
0.030865
0.0308129
0.0307614
0.0307106
0.0306605
0.0306111
0.0305623
0.0305142
0.0304667
0.0304199
0.0303736
0.030328
0.030283
0.0302386
0.0301947
0.0301514
0.0301087
0.0300665
0.0300248
0.0299837
0.0299431
0.029903
0.0298635
0.0298244
0.0297858
0.0297477
0.0297101
0.0296729
0.0296363
0.0296001
0.0295643
0.029529
0.0294941
0.0294596
0.0294256
0.029392
0.0293588
0.029326
0.0292935
0.0292615
0.0292297
0.0291984
0.0291674
0.0291367
0.0291065
0.0290762
0.029047
0.0290167
0.0289891
0.0289582
0.0289328
0.0289008
0.0288779
0.0288448
0.0288238
0.0287905
0.0287718
0.0287355
0.000586349
0.000878546
0.00127385
0.00181868
0.00247102
0.00336909
0.00442241
0.00582752
0.00748518
0.00959021
0.012058
0.0149224
0.018068
0.021371
0.0246287
0.0277365
0.030552
0.0330284
0.0351284
0.0368813
0.0383084
0.0394468
0.0403401
0.0410163
0.0415211
0.0418835
0.0421161
0.0422524
0.0423
0.0422829
0.0422224
0.042106
0.0419549
0.0417777
0.0415755
0.0413568
0.0411269
0.0408856
0.0406357
0.0403811
0.0401236
0.0398628
0.0396028
0.0393431
0.0390849
0.0388286
0.0385748
0.0383241
0.0380765
0.0378326
0.0375927
0.0373571
0.0371252
0.0368977
0.0366745
0.0364557
0.036241
0.0360308
0.0358247
0.0356229
0.035425
0.0352313
0.0350415
0.0348557
0.0346736
0.0344954
0.0343208
0.0341499
0.0339825
0.0338185
0.0336579
0.0335005
0.0333464
0.0331953
0.0330474
0.0329023
0.0327602
0.0326209
0.0324843
0.0323504
0.0322191
0.0320904
0.0319642
0.0318403
0.0317188
0.0315996
0.0314827
0.0313679
0.0312552
0.0311446
0.0310361
0.0309295
0.0308248
0.030722
0.0306211
0.0305219
0.0304244
0.0303287
0.0302347
0.0301422
0.0300514
0.0299621
0.0298742
0.0297879
0.029703
0.0296196
0.0295375
0.0294567
0.0293773
0.0292991
0.0292223
0.0291466
0.0290722
0.0289989
0.0289268
0.0288558
0.0287859
0.0287171
0.0286493
0.0285826
0.0285169
0.0284522
0.0283885
0.0283257
0.0282639
0.028203
0.028143
0.0280838
0.0280256
0.0279681
0.0279115
0.0278557
0.0278007
0.0277465
0.0276931
0.0276404
0.0275885
0.0275373
0.0274867
0.0274369
0.0273878
0.0273394
0.0272916
0.0272445
0.027198
0.0271521
0.0271069
0.0270622
0.0270182
0.0269747
0.0269319
0.0268896
0.0268478
0.0268066
0.0267659
0.0267258
0.0266862
0.026647
0.0266084
0.0265703
0.0265327
0.0264956
0.0264589
0.0264227
0.0263869
0.0263516
0.0263168
0.0262824
0.0262484
0.0262149
0.0261817
0.0261491
0.0261167
0.0260849
0.0260533
0.0260223
0.0259915
0.0259612
0.0259312
0.0259017
0.0258722
0.0258434
0.0258146
0.0257866
0.0257584
0.025731
0.0257035
0.0256766
0.0256499
0.0256231
0.0255978
0.0255706
0.0255473
0.0255192
0.0254981
0.0254692
0.0254504
0.0254208
0.0254048
0.0253726
0.000560628
0.000698434
0.000903791
0.00117647
0.00147867
0.00188125
0.00233218
0.00292355
0.00361868
0.00451233
0.00559981
0.00695012
0.00856582
0.0104654
0.0125942
0.0149161
0.0173257
0.0197384
0.0220486
0.0241972
0.0261338
0.0278412
0.0293186
0.0305747
0.0316284
0.0325041
0.0332155
0.0337904
0.0342415
0.0345898
0.0348542
0.0350413
0.0351636
0.0352347
0.0352562
0.0352435
0.0352036
0.0351314
0.0350381
0.0349266
0.0348018
0.0346613
0.0345142
0.0343588
0.0341964
0.0340293
0.0338585
0.0336854
0.0335099
0.0333337
0.0331574
0.0329813
0.0328055
0.0326307
0.0324573
0.0322856
0.0321154
0.0319473
0.0317814
0.0316177
0.0314561
0.031297
0.0311401
0.0309857
0.0308338
0.0306844
0.0305375
0.030393
0.0302511
0.0301116
0.0299744
0.0298397
0.0297074
0.0295774
0.0294498
0.0293244
0.0292012
0.0290802
0.0289614
0.0288447
0.0287301
0.0286175
0.0285069
0.0283983
0.0282916
0.0281868
0.0280838
0.0279826
0.0278832
0.0277855
0.0276894
0.0275951
0.0275023
0.0274112
0.0273215
0.0272334
0.0271468
0.0270616
0.0269778
0.0268955
0.0268145
0.0267348
0.0266564
0.0265793
0.0265035
0.0264288
0.0263554
0.0262831
0.026212
0.026142
0.0260731
0.0260052
0.0259385
0.0258727
0.025808
0.0257442
0.0256815
0.0256196
0.0255587
0.0254988
0.0254397
0.0253815
0.0253241
0.0252676
0.025212
0.0251571
0.025103
0.0250497
0.0249972
0.0249454
0.0248944
0.0248441
0.0247945
0.0247456
0.0246974
0.0246498
0.0246029
0.0245567
0.0245111
0.0244661
0.0244217
0.024378
0.0243348
0.0242922
0.0242502
0.0242088
0.0241678
0.0241275
0.0240877
0.0240484
0.0240096
0.0239713
0.0239335
0.0238963
0.0238595
0.0238231
0.0237873
0.0237519
0.0237169
0.0236824
0.0236484
0.0236147
0.0235815
0.0235488
0.0235164
0.0234844
0.0234529
0.0234217
0.0233909
0.0233606
0.0233305
0.0233009
0.0232716
0.0232428
0.0232142
0.0231861
0.0231582
0.0231308
0.0231036
0.0230769
0.0230502
0.0230242
0.022998
0.0229727
0.0229471
0.0229225
0.0228974
0.0228733
0.022849
0.022825
0.0228019
0.0227778
0.0227563
0.0227316
0.0227122
0.0226866
0.0226696
0.0226433
0.0226293
0.0226006
0.000550227
0.00061797
0.000729563
0.00088018
0.00103907
0.00124309
0.00146179
0.00173451
0.00204512
0.00243028
0.00289189
0.003469
0.00417125
0.00504171
0.00608488
0.00732397
0.00874594
0.010339
0.0120548
0.0138447
0.0156452
0.017402
0.0190682
0.0206117
0.022012
0.0232662
0.0243684
0.0253314
0.0261593
0.0268676
0.0274674
0.0279706
0.0283868
0.0287291
0.0290037
0.0292216
0.0293916
0.0295169
0.0296048
0.0296597
0.0296891
0.0296884
0.0296748
0.0296416
0.029591
0.0295285
0.0294548
0.0293726
0.0292811
0.0291839
0.029082
0.0289749
0.028864
0.0287502
0.028634
0.0285164
0.0283971
0.0282771
0.0281569
0.0280363
0.0279157
0.0277954
0.0276755
0.0275562
0.0274379
0.0273203
0.0272039
0.0270886
0.0269745
0.0268617
0.0267501
0.0266399
0.0265312
0.0264238
0.0263179
0.0262134
0.0261104
0.0260089
0.0259087
0.0258102
0.025713
0.0256174
0.0255231
0.0254303
0.0253388
0.0252488
0.0251602
0.0250729
0.024987
0.0249024
0.0248192
0.0247372
0.0246565
0.024577
0.0244988
0.0244217
0.0243459
0.0242712
0.0241977
0.0241254
0.0240541
0.023984
0.0239149
0.0238468
0.0237798
0.0237138
0.0236489
0.0235848
0.0235218
0.0234597
0.0233985
0.0233382
0.0232789
0.0232204
0.0231627
0.0231059
0.02305
0.0229948
0.0229405
0.0228869
0.0228341
0.0227821
0.0227308
0.0226802
0.0226304
0.0225812
0.0225328
0.022485
0.0224379
0.0223915
0.0223456
0.0223005
0.0222559
0.022212
0.0221686
0.0221259
0.0220837
0.0220421
0.022001
0.0219605
0.0219205
0.0218811
0.0218422
0.0218038
0.0217659
0.0217285
0.0216916
0.0216552
0.0216193
0.0215838
0.0215488
0.0215142
0.0214801
0.0214464
0.0214131
0.0213803
0.0213479
0.0213159
0.0212843
0.0212531
0.0212222
0.0211918
0.0211617
0.0211321
0.0211028
0.0210738
0.0210452
0.021017
0.0209891
0.0209616
0.0209344
0.0209076
0.0208811
0.0208549
0.020829
0.0208036
0.0207782
0.0207535
0.0207287
0.0207046
0.0206803
0.0206568
0.0206331
0.0206102
0.0205869
0.0205647
0.0205419
0.0205202
0.0204981
0.0204766
0.0204555
0.0204339
0.0204143
0.0203923
0.0203745
0.0203518
0.0203364
0.0203128
0.0203005
0.0202748
0.000545457
0.000579978
0.00064065
0.000727549
0.000818442
0.000932072
0.00105117
0.0011926
0.00134831
0.00153184
0.00174371
0.00199916
0.002303
0.00267786
0.00313086
0.0036863
0.00435506
0.00515335
0.00608389
0.00714642
0.00832496
0.0095975
0.0109304
0.0122891
0.0136344
0.0149409
0.0161772
0.0173326
0.0183913
0.0193538
0.0202175
0.0209873
0.0216662
0.0222628
0.022782
0.0232321
0.0236194
0.0239503
0.0242308
0.0244657
0.0246627
0.0248211
0.0249509
0.0250531
0.0251301
0.0251858
0.0252224
0.0252434
0.0252471
0.0252409
0.025224
0.0251954
0.0251585
0.0251143
0.0250635
0.0250076
0.0249461
0.0248809
0.0248127
0.024741
0.0246666
0.0245901
0.0245119
0.0244321
0.0243514
0.0242695
0.024187
0.0241042
0.0240211
0.0239378
0.0238544
0.0237713
0.0236884
0.0236057
0.0235236
0.0234419
0.0233608
0.0232803
0.0232005
0.0231214
0.023043
0.0229654
0.0228885
0.0228126
0.0227374
0.0226631
0.0225896
0.022517
0.0224453
0.0223745
0.0223045
0.0222354
0.0221673
0.0220999
0.0220335
0.0219679
0.0219032
0.0218394
0.0217764
0.0217143
0.021653
0.0215925
0.0215328
0.021474
0.021416
0.0213587
0.0213022
0.0212465
0.0211916
0.0211374
0.021084
0.0210312
0.0209792
0.0209279
0.0208774
0.0208274
0.0207782
0.0207297
0.0206818
0.0206345
0.0205879
0.0205419
0.0204966
0.0204518
0.0204076
0.0203641
0.0203211
0.0202787
0.0202368
0.0201955
0.0201548
0.0201145
0.0200749
0.0200357
0.019997
0.0199589
0.0199212
0.0198841
0.0198474
0.0198111
0.0197754
0.0197401
0.0197053
0.0196709
0.0196369
0.0196034
0.0195703
0.0195376
0.0195053
0.0194735
0.019442
0.0194109
0.0193803
0.01935
0.01932
0.0192905
0.0192613
0.0192325
0.019204
0.0191759
0.0191481
0.0191206
0.0190935
0.0190668
0.0190403
0.0190142
0.0189884
0.0189629
0.0189377
0.0189129
0.0188883
0.0188641
0.0188401
0.0188164
0.018793
0.01877
0.0187471
0.0187247
0.0187023
0.0186804
0.0186585
0.0186372
0.0186157
0.0185951
0.018574
0.0185539
0.0185333
0.0185136
0.0184936
0.0184742
0.0184551
0.0184358
0.0184179
0.0183983
0.018382
0.0183618
0.0183478
0.0183267
0.0183158
0.0182928
0.00054288
0.000561097
0.000593281
0.000643397
0.000697316
0.000764159
0.000834187
0.000914537
0.00100111
0.0010989
0.00120757
0.00133279
0.00147634
0.00164716
0.00184794
0.00209109
0.00238368
0.0027372
0.00316246
0.00367061
0.00426687
0.00495777
0.00574024
0.00660959
0.00754802
0.00854301
0.00956685
0.0106023
0.0116229
0.0126146
0.0135605
0.0144521
0.0152809
0.0160456
0.016744
0.0173787
0.0179507
0.0184641
0.0189224
0.0193291
0.0196901
0.0200066
0.0202849
0.0205275
0.020738
0.0209194
0.0210745
0.0212067
0.0213166
0.0214081
0.0214833
0.0215426
0.0215882
0.0216215
0.0216437
0.0216568
0.0216597
0.0216563
0.0216466
0.0216294
0.0216069
0.0215796
0.021548
0.0215125
0.0214739
0.0214318
0.0213873
0.0213409
0.0212923
0.0212418
0.0211898
0.0211366
0.0210824
0.0210271
0.0209712
0.0209146
0.0208575
0.0208002
0.0207425
0.0206847
0.0206268
0.0205689
0.020511
0.0204533
0.0203957
0.0203383
0.0202812
0.0202243
0.0201679
0.0201118
0.0200561
0.0200008
0.0199459
0.0198915
0.0198376
0.0197841
0.0197312
0.0196787
0.0196268
0.0195754
0.0195245
0.0194742
0.0194243
0.0193751
0.0193263
0.0192781
0.0192305
0.0191834
0.0191368
0.0190907
0.0190452
0.0190003
0.0189558
0.0189119
0.0188685
0.0188256
0.0187832
0.0187414
0.0187
0.0186592
0.0186188
0.0185789
0.0185395
0.0185006
0.0184622
0.0184242
0.0183867
0.0183496
0.018313
0.0182769
0.0182411
0.0182059
0.018171
0.0181366
0.0181026
0.018069
0.0180358
0.018003
0.0179706
0.0179386
0.017907
0.0178758
0.0178449
0.0178144
0.0177843
0.0177546
0.0177252
0.0176962
0.0176675
0.0176391
0.0176111
0.0175835
0.0175561
0.0175291
0.0175024
0.017476
0.01745
0.0174242
0.0173988
0.0173736
0.0173487
0.0173242
0.0172999
0.0172759
0.0172522
0.0172288
0.0172057
0.0171828
0.0171602
0.0171379
0.0171158
0.0170941
0.0170725
0.0170512
0.0170301
0.0170095
0.0169888
0.0169687
0.0169485
0.0169289
0.0169091
0.01689
0.0168706
0.016852
0.016833
0.0168149
0.0167963
0.0167787
0.0167606
0.0167432
0.0167259
0.0167086
0.0166924
0.016675
0.0166602
0.0166422
0.0166296
0.0166108
0.016601
0.0165804
0.000541242
0.000550892
0.000567313
0.000595227
0.000627065
0.000667039
0.000709664
0.000757845
0.000809348
0.000865995
0.0009272
0.000995321
0.00107049
0.00115665
0.00125414
0.00136854
0.00150191
0.00166041
0.00184902
0.0020749
0.00234326
0.0026636
0.00304002
0.00348032
0.00398401
0.00455617
0.00518908
0.00588002
0.00661529
0.00738529
0.00817407
0.00896934
0.00975594
0.0105242
0.0112636
0.0119687
0.0126331
0.013255
0.0138325
0.0143653
0.0148555
0.0153029
0.0157108
0.0160805
0.0164149
0.0167162
0.016987
0.0172295
0.0174459
0.0176384
0.0178093
0.0179601
0.0180926
0.0182084
0.0183089
0.018396
0.0184698
0.0185327
0.0185857
0.0186288
0.0186634
0.0186902
0.01871
0.0187232
0.0187312
0.0187328
0.0187307
0.0187247
0.018714
0.0186998
0.0186826
0.0186626
0.01864
0.018615
0.0185882
0.0185592
0.0185286
0.0184969
0.0184636
0.0184292
0.0183938
0.0183575
0.0183203
0.0182826
0.0182442
0.0182053
0.018166
0.0181263
0.0180865
0.0180464
0.0180061
0.0179657
0.0179252
0.0178847
0.0178442
0.0178038
0.0177634
0.0177232
0.0176831
0.0176432
0.0176034
0.0175638
0.0175245
0.0174854
0.0174465
0.0174079
0.0173696
0.0173315
0.0172937
0.0172563
0.0172191
0.0171822
0.0171457
0.0171095
0.0170736
0.017038
0.0170028
0.0169679
0.0169333
0.016899
0.0168651
0.0168316
0.0167983
0.0167654
0.0167329
0.0167006
0.0166688
0.0166372
0.016606
0.0165751
0.0165445
0.0165142
0.0164843
0.0164547
0.0164254
0.0163964
0.0163678
0.0163394
0.0163114
0.0162837
0.0162562
0.0162291
0.0162023
0.0161757
0.0161495
0.0161235
0.0160978
0.0160725
0.0160473
0.0160225
0.015998
0.0159737
0.0159497
0.0159259
0.0159024
0.0158792
0.0158562
0.0158335
0.0158111
0.0157889
0.0157669
0.0157452
0.0157237
0.0157025
0.0156815
0.0156607
0.0156402
0.0156199
0.0155998
0.01558
0.0155604
0.015541
0.0155218
0.0155029
0.0154841
0.0154657
0.0154473
0.0154293
0.0154113
0.0153938
0.0153762
0.0153591
0.0153418
0.0153252
0.0153082
0.015292
0.0152754
0.0152596
0.0152435
0.015228
0.0152125
0.0151971
0.0151826
0.0151671
0.0151538
0.0151379
0.0151265
0.0151098
0.0151012
0.0150828
0.000540075
0.000544659
0.000552518
0.000567003
0.000585014
0.000608463
0.000634316
0.00066369
0.000695239
0.000729627
0.000766206
0.000806096
0.000848848
0.000896461
0.00094849
0.00100764
0.00107413
0.00115094
0.00123977
0.00134374
0.00146538
0.00160991
0.00177943
0.00198071
0.00221577
0.00249187
0.00280964
0.00317451
0.00358534
0.00404332
0.00454397
0.00508398
0.00565499
0.00625029
0.00685997
0.00747629
0.00808978
0.0086935
0.00928091
0.00984641
0.0103876
0.0109001
0.0113839
0.0118368
0.0122598
0.0126525
0.0130164
0.013352
0.0136611
0.0139445
0.0142043
0.0144415
0.0146577
0.0148544
0.0150327
0.0151943
0.0153401
0.0154715
0.0155898
0.0156957
0.0157902
0.0158743
0.0159487
0.0160142
0.0160718
0.0161215
0.0161645
0.0162015
0.0162324
0.0162579
0.0162785
0.0162946
0.0163067
0.0163148
0.0163197
0.0163208
0.0163195
0.0163159
0.0163092
0.0163005
0.0162897
0.016277
0.0162626
0.0162467
0.0162293
0.0162107
0.0161909
0.0161699
0.0161482
0.0161256
0.0161021
0.0160779
0.0160531
0.0160277
0.0160019
0.0159756
0.0159489
0.0159219
0.0158946
0.015867
0.0158392
0.0158113
0.0157832
0.015755
0.0157268
0.0156984
0.0156701
0.0156417
0.0156134
0.015585
0.0155568
0.0155286
0.0155004
0.0154724
0.0154445
0.0154166
0.015389
0.0153614
0.015334
0.0153067
0.0152796
0.0152527
0.015226
0.0151994
0.015173
0.0151468
0.0151208
0.0150949
0.0150693
0.0150439
0.0150187
0.0149937
0.0149688
0.0149442
0.0149198
0.0148957
0.0148717
0.0148479
0.0148244
0.014801
0.0147779
0.014755
0.0147323
0.0147098
0.0146875
0.0146654
0.0146436
0.0146219
0.0146005
0.0145792
0.0145582
0.0145374
0.0145167
0.0144963
0.0144761
0.0144561
0.0144363
0.0144166
0.0143972
0.014378
0.0143589
0.0143401
0.0143214
0.014303
0.0142847
0.0142666
0.0142487
0.014231
0.0142135
0.0141961
0.014179
0.014162
0.0141452
0.0141286
0.0141121
0.014096
0.0140798
0.014064
0.0140482
0.0140328
0.0140172
0.0140022
0.0139869
0.0139722
0.0139573
0.013943
0.0139284
0.0139144
0.0139002
0.0138865
0.0138728
0.0138592
0.0138463
0.0138327
0.0138209
0.013807
0.0137968
0.0137822
0.0137746
0.0137584
0.000539162
0.000540421
0.000543527
0.000550006
0.000559313
0.000572235
0.000587262
0.00060479
0.000623956
0.000645014
0.000667365
0.00069159
0.000717132
0.000745065
0.000774837
0.000807825
0.000843868
0.000884264
0.000929677
0.000981454
0.00104036
0.00110905
0.0011878
0.00128059
0.00138804
0.00151444
0.00166102
0.00183243
0.00203015
0.0022579
0.00251684
0.00280949
0.00313534
0.00349436
0.00388406
0.00430185
0.00474309
0.00520281
0.00567573
0.00615525
0.00663725
0.00711498
0.00758539
0.0080434
0.00848688
0.00891271
0.00931986
0.0097065
0.0100727
0.0104176
0.0107418
0.0110453
0.0113289
0.0115931
0.0118388
0.0120667
0.0122778
0.0124731
0.0126534
0.0128197
0.0129727
0.0131133
0.0132424
0.0133606
0.0134688
0.0135675
0.0136574
0.0137392
0.0138135
0.0138806
0.0139412
0.0139956
0.0140444
0.0140879
0.0141266
0.0141606
0.0141904
0.0142166
0.0142389
0.0142579
0.0142737
0.0142867
0.014297
0.0143048
0.0143103
0.0143137
0.0143149
0.0143143
0.0143125
0.0143087
0.0143035
0.014297
0.0142892
0.0142803
0.0142703
0.0142593
0.0142475
0.0142348
0.0142214
0.0142072
0.0141925
0.0141772
0.0141613
0.0141449
0.0141281
0.0141109
0.0140933
0.0140754
0.0140572
0.0140387
0.0140201
0.0140011
0.0139821
0.0139628
0.0139434
0.0139239
0.0139043
0.0138846
0.0138649
0.0138451
0.0138253
0.0138054
0.0137856
0.0137657
0.0137459
0.013726
0.0137063
0.0136865
0.0136668
0.0136472
0.0136277
0.0136082
0.0135888
0.0135694
0.0135502
0.0135311
0.013512
0.0134931
0.0134742
0.0134555
0.0134369
0.0134184
0.0134
0.0133817
0.0133636
0.0133455
0.0133277
0.0133099
0.0132922
0.0132747
0.0132574
0.0132401
0.013223
0.013206
0.0131892
0.0131725
0.0131559
0.0131395
0.0131232
0.013107
0.013091
0.0130751
0.0130593
0.0130437
0.0130282
0.0130129
0.0129977
0.0129826
0.0129677
0.0129529
0.0129383
0.0129238
0.0129094
0.0128952
0.012881
0.0128671
0.0128533
0.0128397
0.012826
0.0128127
0.0127994
0.0127864
0.0127732
0.0127605
0.0127476
0.0127352
0.0127226
0.0127104
0.0126981
0.0126862
0.0126743
0.0126626
0.0126514
0.0126396
0.0126293
0.0126173
0.0126084
0.0125957
0.0125892
0.0125752
0.000538257
0.000537312
0.000537709
0.000539413
0.000543241
0.000549397
0.000557311
0.000567046
0.000578081
0.000590555
0.000603967
0.00061862
0.000634035
0.000650791
0.000668431
0.00068764
0.000708241
0.000730809
0.000755558
0.000783221
0.000813791
0.00084877
0.000887901
0.000933127
0.000984593
0.00104415
0.00111263
0.00119225
0.00128389
0.00139005
0.00151218
0.0016527
0.00181306
0.00199508
0.00220007
0.00242903
0.00268232
0.00295922
0.00325919
0.00357941
0.00391864
0.00427243
0.00463859
0.00501233
0.00539093
0.00577007
0.0061472
0.00651866
0.00688264
0.0072365
0.00757906
0.00790879
0.00822495
0.00852677
0.00881399
0.00908654
0.00934432
0.00958784
0.00981717
0.0100329
0.0102354
0.0104252
0.0106029
0.0107689
0.0109241
0.0110687
0.0112034
0.0113288
0.0114454
0.0115536
0.0116539
0.0117469
0.011833
0.0119125
0.011986
0.0120537
0.0121159
0.0121733
0.0122258
0.0122739
0.0123178
0.0123579
0.0123943
0.0124273
0.0124571
0.0124839
0.0125079
0.0125292
0.0125482
0.0125648
0.0125793
0.0125918
0.0126023
0.0126111
0.0126183
0.0126239
0.0126281
0.0126309
0.0126326
0.0126327
0.0126321
0.0126305
0.0126278
0.0126242
0.0126197
0.0126145
0.0126086
0.012602
0.0125948
0.0125869
0.0125786
0.0125697
0.0125604
0.0125506
0.0125404
0.0125299
0.012519
0.0125078
0.0124963
0.0124845
0.0124725
0.0124602
0.0124478
0.0124351
0.0124223
0.0124093
0.0123963