/*--------------------------------*- C++ -*----------------------------------*\
  =========                 |
  \\      /  F ield         | OpenFOAM: The Open Source CFD Toolbox
   \\    /   O peration     | Website:  https://openfoam.org
    \\  /    A nd           | Version:  12
     \\/     M anipulation  |
\*---------------------------------------------------------------------------*/
FoamFile
{
    format      ascii;
    class       volScalarField;
    location    "1000";
    object      k;
}
// * * * * * * * * * * * * * * * * * * * * * * * * * * * * * * * * * * * * * //

dimensions      [0 2 -2 0 0 0 0];

internalField   nonuniform List<scalar> 
20000
(
0.00121539
0.00045655
0.000505714
0.000674924
0.000785922
0.000874372
0.000962223
0.00105501
0.00113197
0.00120315
0.00125086
0.00130252
0.00133569
0.0013689
0.0013972
0.00142306
0.00144272
0.00145976
0.00147327
0.00148555
0.00149476
0.00150253
0.00150864
0.00151351
0.00151756
0.00152021
0.00152215
0.00152333
0.00152364
0.00152348
0.00152297
0.00152187
0.00152036
0.00151861
0.00151648
0.00151414
0.0015117
0.00150905
0.00150613
0.00150321
0.00150006
0.00149689
0.00149359
0.00149024
0.00148687
0.00148345
0.00147995
0.00147646
0.00147291
0.00146939
0.00146584
0.00146233
0.00145877
0.00145524
0.00145174
0.00144825
0.00144478
0.00144133
0.00143791
0.00143451
0.00143114
0.00142779
0.00142447
0.00142119
0.00141792
0.0014147
0.0014115
0.00140835
0.00140523
0.00140214
0.00139908
0.00139606
0.00139307
0.00139012
0.0013872
0.00138432
0.00138147
0.00137866
0.00137588
0.00137313
0.00137042
0.00136774
0.0013651
0.00136249
0.00135991
0.00135736
0.00135485
0.00135237
0.00134991
0.00134749
0.0013451
0.00134274
0.00134041
0.00133811
0.00133584
0.0013336
0.00133139
0.0013292
0.00132705
0.00132491
0.00132281
0.00132073
0.00131869
0.00131666
0.00131466
0.00131269
0.00131074
0.00130882
0.00130692
0.00130505
0.00130319
0.00130137
0.00129956
0.00129778
0.00129602
0.00129428
0.00129256
0.00129087
0.00128919
0.00128754
0.00128591
0.00128429
0.0012827
0.00128113
0.00127957
0.00127804
0.00127652
0.00127503
0.00127355
0.00127209
0.00127064
0.00126922
0.00126781
0.00126642
0.00126505
0.00126369
0.00126235
0.00126102
0.00125971
0.00125842
0.00125714
0.00125588
0.00125463
0.0012534
0.00125218
0.00125098
0.00124979
0.00124861
0.00124745
0.0012463
0.00124517
0.00124405
0.00124294
0.00124185
0.00124077
0.0012397
0.00123864
0.0012376
0.00123657
0.00123555
0.00123454
0.00123354
0.00123256
0.00123159
0.00123062
0.00122967
0.00122873
0.0012278
0.00122688
0.00122598
0.00122508
0.0012242
0.00122332
0.00122246
0.0012216
0.00122076
0.00121992
0.0012191
0.00121829
0.00121748
0.00121668
0.00121589
0.00121511
0.00121432
0.00121357
0.00121278
0.00121206
0.00121125
0.00121057
0.00120973
0.00120913
0.0012082
0.00120772
0.00120669
0.00120627
0.00120524
0.00120481
0.00120374
0.00120338
0.00120173
0.00309521
0.00342052
0.00442791
0.00580093
0.00659024
0.00721011
0.00781022
0.00842585
0.00891344
0.0093512
0.00962891
0.00992773
0.0101074
0.010286
0.0104339
0.0105671
0.0106624
0.0107427
0.0108023
0.0108555
0.010891
0.0109189
0.010938
0.0109505
0.0109591
0.01096
0.0109577
0.0109515
0.0109409
0.0109281
0.0109139
0.0108968
0.0108778
0.0108579
0.0108362
0.0108137
0.010791
0.0107674
0.0107427
0.0107182
0.0106928
0.0106674
0.0106416
0.0106158
0.01059
0.0105642
0.0105381
0.0105124
0.0104864
0.0104608
0.0104352
0.01041
0.0103846
0.0103596
0.0103348
0.0103103
0.010286
0.0102619
0.0102381
0.0102146
0.0101913
0.0101683
0.0101454
0.010123
0.0101006
0.0100787
0.0100569
0.0100355
0.0100143
0.00999344
0.00997278
0.00995242
0.00993229
0.00991243
0.00989284
0.0098735
0.00985441
0.00983559
0.00981701
0.00979867
0.0097806
0.00976275
0.00974514
0.00972777
0.00971062
0.00969371
0.00967701
0.00966056
0.0096443
0.00962828
0.00961245
0.00959685
0.00958144
0.00956623
0.00955124
0.00953643
0.00952183
0.0095074
0.00949319
0.00947914
0.00946529
0.00945161
0.00943812
0.0094248
0.00941165
0.00939869
0.00938587
0.00937324
0.00936075
0.00934844
0.00933626
0.00932427
0.0093124
0.00930072
0.00928915
0.00927775
0.00926649
0.00925538
0.00924439
0.00923356
0.00922285
0.00921228
0.00920184
0.00919153
0.00918135
0.0091713
0.00916137
0.00915157
0.00914188
0.00913231
0.00912287
0.00911353
0.00910432
0.00909521
0.00908622
0.00907732
0.00906855
0.00905987
0.00905131
0.00904284
0.00903448
0.00902622
0.00901806
0.00900999
0.00900202
0.00899414
0.00898637
0.00897868
0.00897109
0.00896357
0.00895616
0.00894883
0.00894158
0.00893442
0.00892735
0.00892036
0.00891344
0.00890662
0.00889987
0.0088932
0.00888659
0.00888007
0.00887363
0.00886726
0.00886096
0.00885473
0.00884858
0.0088425
0.00883648
0.00883055
0.00882468
0.00881888
0.00881314
0.00880749
0.00880188
0.00879633
0.00879086
0.00878547
0.00878015
0.00877483
0.00876962
0.00876438
0.00875931
0.00875411
0.0087492
0.00874401
0.00873931
0.00873401
0.00872957
0.008724
0.00872008
0.008714
0.00871079
0.00870408
0.00870127
0.00869451
0.00869165
0.00868464
0.00868223
0.00867167
0.00355493
0.00360063
0.00411384
0.0053633
0.00668255
0.00806984
0.00935314
0.0105364
0.0114741
0.0122836
0.0128617
0.0134057
0.0137948
0.0141432
0.0144333
0.0146885
0.0148834
0.0150488
0.01518
0.0152949
0.0153815
0.0154536
0.0155102
0.015555
0.0155912
0.0156158
0.0156327
0.0156433
0.0156468
0.0156459
0.0156417
0.0156327
0.0156202
0.0156055
0.0155879
0.0155685
0.015548
0.0155258
0.0155016
0.0154773
0.0154513
0.0154249
0.0153976
0.0153699
0.0153421
0.0153137
0.0152849
0.0152562
0.015227
0.015198
0.0151689
0.01514
0.0151108
0.0150819
0.0150531
0.0150246
0.0149961
0.0149678
0.0149398
0.014912
0.0148844
0.014857
0.0148298
0.014803
0.0147763
0.01475
0.0147239
0.0146981
0.0146726
0.0146473
0.0146223
0.0145977
0.0145732
0.0145491
0.0145253
0.0145017
0.0144784
0.0144555
0.0144328
0.0144103
0.0143882
0.0143663
0.0143447
0.0143233
0.0143022
0.0142814
0.0142609
0.0142406
0.0142205
0.0142007
0.0141812
0.0141619
0.0141428
0.014124
0.0141054
0.0140871
0.0140689
0.014051
0.0140334
0.0140159
0.0139987
0.0139817
0.0139649
0.0139483
0.0139319
0.0139158
0.0138998
0.013884
0.0138684
0.013853
0.0138378
0.0138228
0.013808
0.0137934
0.0137789
0.0137646
0.0137505
0.0137366
0.0137228
0.0137093
0.0136958
0.0136826
0.0136695
0.0136565
0.0136437
0.0136311
0.0136186
0.0136063
0.0135941
0.0135821
0.0135702
0.0135585
0.0135469
0.0135354
0.0135241
0.0135129
0.0135018
0.0134909
0.0134801
0.0134694
0.0134589
0.0134485
0.0134382
0.013428
0.0134179
0.013408
0.0133982
0.0133885
0.0133789
0.0133694
0.01336
0.0133508
0.0133416
0.0133326
0.0133236
0.0133148
0.013306
0.0132974
0.0132889
0.0132804
0.0132721
0.0132638
0.0132557
0.0132476
0.0132396
0.0132317
0.013224
0.0132163
0.0132086
0.0132011
0.0131937
0.0131864
0.0131791
0.0131719
0.0131648
0.0131578
0.0131509
0.0131441
0.0131373
0.0131306
0.013124
0.0131174
0.0131109
0.0131044
0.0130981
0.0130917
0.0130856
0.0130791
0.0130732
0.0130665
0.0130612
0.013054
0.0130496
0.0130415
0.0130378
0.0130296
0.0130258
0.0130176
0.0130138
0.0130034
0.00376345
0.00367999
0.00376215
0.00416025
0.00503553
0.00623575
0.00752918
0.00891456
0.0101728
0.0113385
0.0122834
0.0131482
0.0138486
0.0144604
0.0149767
0.0154268
0.0157889
0.0160999
0.0163571
0.0165819
0.0167641
0.0169205
0.017051
0.0171616
0.0172558
0.0173322
0.0173949
0.0174468
0.0174873
0.0175201
0.0175452
0.0175634
0.0175754
0.0175831
0.0175855
0.0175846
0.017581
0.017574
0.0175637
0.0175522
0.0175379
0.0175223
0.0175049
0.0174862
0.0174667
0.017446
0.0174243
0.017402
0.0173788
0.0173554
0.0173314
0.0173072
0.0172823
0.0172574
0.0172323
0.0172072
0.0171818
0.0171565
0.0171311
0.0171058
0.0170804
0.0170552
0.0170299
0.0170048
0.0169797
0.0169549
0.0169301
0.0169056
0.0168812
0.0168569
0.0168329
0.016809
0.0167854
0.0167619
0.0167387
0.0167156
0.0166928
0.0166702
0.0166478
0.0166257
0.0166038
0.0165821
0.0165606
0.0165394
0.0165184
0.0164976
0.016477
0.0164567
0.0164366
0.0164167
0.016397
0.0163776
0.0163584
0.0163394
0.0163206
0.016302
0.0162836
0.0162654
0.0162475
0.0162298
0.0162122
0.0161949
0.0161778
0.0161609
0.0161441
0.0161276
0.0161113
0.0160951
0.0160792
0.0160634
0.0160478
0.0160324
0.0160172
0.0160021
0.0159873
0.0159726
0.015958
0.0159437
0.0159295
0.0159155
0.0159016
0.0158879
0.0158744
0.015861
0.0158478
0.0158348
0.0158219
0.0158091
0.0157965
0.015784
0.0157717
0.0157595
0.0157475
0.0157356
0.0157238
0.0157122
0.0157007
0.0156894
0.0156781
0.015667
0.0156561
0.0156452
0.0156345
0.0156239
0.0156135
0.0156031
0.0155929
0.0155828
0.0155728
0.0155629
0.0155531
0.0155435
0.0155339
0.0155245
0.0155151
0.0155059
0.0154968
0.0154878
0.0154789
0.01547
0.0154613
0.0154527
0.0154442
0.0154358
0.0154274
0.0154192
0.015411
0.015403
0.015395
0.0153872
0.0153794
0.0153718
0.0153641
0.0153567
0.0153492
0.0153419
0.0153346
0.0153276
0.0153205
0.0153135
0.0153065
0.0152997
0.0152929
0.0152862
0.0152795
0.0152729
0.0152664
0.0152598
0.0152535
0.0152468
0.015241
0.0152338
0.0152289
0.0152209
0.0152168
0.0152085
0.0152044
0.0151964
0.0151924
0.0151829
0.00382063
0.00375779
0.00369077
0.0037345
0.00395232
0.00444988
0.00519562
0.00621018
0.00733346
0.00859146
0.00977967
0.0109203
0.0119293
0.0128206
0.0135939
0.0142808
0.0148611
0.0153666
0.0157989
0.0161798
0.0165011
0.0167825
0.0170243
0.0172358
0.0174202
0.0175778
0.0177135
0.0178313
0.0179315
0.0180189
0.0180929
0.018156
0.0182093
0.0182547
0.0182919
0.018323
0.0183482
0.0183685
0.0183835
0.0183952
0.0184026
0.0184071
0.0184083
0.0184072
0.0184041
0.0183985
0.0183911
0.0183822
0.0183717
0.0183601
0.0183471
0.0183334
0.0183183
0.0183028
0.0182866
0.0182697
0.0182522
0.0182344
0.0182161
0.0181975
0.0181785
0.0181593
0.0181398
0.0181202
0.0181003
0.0180804
0.0180604
0.0180404
0.0180202
0.0180001
0.01798
0.0179599
0.0179398
0.0179198
0.0178999
0.01788
0.0178602
0.0178405
0.0178209
0.0178014
0.0177821
0.0177628
0.0177437
0.0177247
0.0177059
0.0176872
0.0176687
0.0176503
0.017632
0.017614
0.017596
0.0175783
0.0175606
0.0175432
0.0175259
0.0175087
0.0174918
0.017475
0.0174583
0.0174418
0.0174255
0.0174094
0.0173934
0.0173776
0.0173619
0.0173464
0.0173311
0.0173159
0.0173008
0.017286
0.0172713
0.0172567
0.0172423
0.0172281
0.017214
0.0172
0.0171862
0.0171726
0.0171591
0.0171457
0.0171325
0.0171195
0.0171065
0.0170938
0.0170811
0.0170686
0.0170563
0.017044
0.0170319
0.01702
0.0170081
0.0169964
0.0169849
0.0169734
0.0169621
0.0169509
0.0169398
0.0169289
0.0169181
0.0169073
0.0168968
0.0168863
0.0168759
0.0168657
0.0168556
0.0168455
0.0168356
0.0168259
0.0168162
0.0168066
0.0167971
0.0167877
0.0167785
0.0167693
0.0167603
0.0167513
0.0167424
0.0167337
0.016725
0.0167164
0.016708
0.0166996
0.0166913
0.0166831
0.016675
0.016667
0.016659
0.0166512
0.0166435
0.0166358
0.0166282
0.0166208
0.0166134
0.0166061
0.0165988
0.0165917
0.0165846
0.0165778
0.0165708
0.0165641
0.0165573
0.0165507
0.016544
0.0165375
0.0165309
0.0165246
0.0165182
0.0165119
0.0165056
0.0164992
0.0164934
0.0164867
0.0164816
0.0164742
0.01647
0.0164622
0.0164583
0.0164508
0.0164469
0.0164385
0.00384396
0.00383109
0.00376468
0.00367992
0.00368609
0.00376941
0.00398468
0.00442416
0.00502169
0.00584559
0.00679504
0.00785359
0.00892925
0.00997739
0.0109522
0.0118579
0.0126702
0.0133992
0.0140406
0.0146142
0.0151134
0.0155555
0.0159434
0.0162863
0.0165885
0.0168536
0.0170869
0.0172939
0.0174754
0.0176374
0.0177793
0.017905
0.0180159
0.0181142
0.0182003
0.0182768
0.0183435
0.0184028
0.018454
0.0184994
0.0185382
0.0185719
0.0186007
0.0186249
0.0186456
0.0186625
0.0186764
0.0186873
0.0186956
0.0187017
0.0187054
0.0187074
0.0187072
0.0187059
0.0187031
0.0186989
0.0186935
0.0186872
0.0186798
0.0186716
0.0186626
0.0186528
0.0186424
0.0186313
0.0186197
0.0186078
0.0185953
0.0185826
0.0185694
0.0185559
0.0185422
0.0185283
0.0185141
0.0184997
0.0184853
0.0184706
0.0184559
0.0184411
0.0184262
0.0184112
0.0183963
0.0183813
0.0183662
0.0183512
0.0183362
0.0183212
0.0183062
0.0182912
0.0182763
0.0182615
0.0182467
0.018232
0.0182173
0.0182027
0.0181881
0.0181737
0.0181593
0.018145
0.0181309
0.0181168
0.0181028
0.0180889
0.0180751
0.0180614
0.0180478
0.0180344
0.018021
0.0180077
0.0179946
0.0179815
0.0179686
0.0179558
0.0179431
0.0179305
0.017918
0.0179056
0.0178933
0.0178812
0.0178692
0.0178572
0.0178454
0.0178337
0.0178221
0.0178107
0.0177993
0.017788
0.0177769
0.0177658
0.0177549
0.0177441
0.0177334
0.0177228
0.0177123
0.0177019
0.0176916
0.0176814
0.0176713
0.0176613
0.0176515
0.0176417
0.017632
0.0176224
0.017613
0.0176036
0.0175943
0.0175851
0.017576
0.017567
0.0175581
0.0175493
0.0175406
0.017532
0.0175235
0.017515
0.0175067
0.0174984
0.0174902
0.0174822
0.0174742
0.0174663
0.0174584
0.0174507
0.017443
0.0174354
0.0174279
0.0174205
0.0174131
0.0174059
0.0173987
0.0173916
0.0173846
0.0173777
0.0173708
0.0173641
0.0173573
0.0173508
0.0173442
0.0173378
0.0173314
0.0173252
0.0173188
0.0173127
0.0173064
0.0173005
0.0172943
0.0172886
0.0172825
0.0172768
0.0172708
0.0172651
0.0172595
0.0172534
0.0172486
0.017242
0.0172379
0.0172309
0.0172272
0.0172205
0.0172171
0.0172098
0.00384402
0.003884
0.00384175
0.00374987
0.00368659
0.00363988
0.00365558
0.00373524
0.00391543
0.00425478
0.00472713
0.00536217
0.00612784
0.00699832
0.00791547
0.00885332
0.00976575
0.010637
0.0114433
0.0121894
0.0128638
0.0134751
0.014024
0.0145183
0.0149618
0.0153583
0.0157132
0.0160326
0.0163178
0.0165755
0.016805
0.0170117
0.0171974
0.0173648
0.0175149
0.0176509
0.0177723
0.0178823
0.0179807
0.01807
0.0181499
0.0182219
0.0182868
0.0183446
0.0183969
0.0184436
0.0184855
0.0185229
0.0185561
0.0185857
0.0186117
0.0186348
0.0186546
0.0186722
0.0186873
0.0187002
0.0187111
0.0187203
0.0187278
0.0187337
0.0187381
0.0187412
0.018743
0.0187437
0.0187433
0.0187422
0.0187401
0.0187372
0.0187335
0.0187292
0.0187242
0.0187187
0.0187126
0.0187061
0.0186991
0.0186917
0.018684
0.0186759
0.0186675
0.0186589
0.01865
0.0186408
0.0186315
0.0186219
0.0186122
0.0186023
0.0185923
0.0185822
0.018572
0.0185616
0.0185512
0.0185408
0.0185302
0.0185196
0.018509
0.0184984
0.0184877
0.018477
0.0184663
0.0184556
0.0184449
0.0184342
0.0184236
0.0184129
0.0184023
0.0183917
0.0183812
0.0183707
0.0183602
0.0183498
0.0183394
0.0183291
0.0183188
0.0183086
0.0182984
0.0182883
0.0182783
0.0182683
0.0182584
0.0182485
0.0182387
0.018229
0.0182194
0.0182098
0.0182003
0.0181908
0.0181815
0.0181722
0.018163
0.0181538
0.0181448
0.0181358
0.0181268
0.018118
0.0181092
0.0181005
0.0180919
0.0180834
0.0180749
0.0180665
0.0180582
0.0180499
0.0180418
0.0180337
0.0180256
0.0180177
0.0180098
0.018002
0.0179943
0.0179866
0.0179791
0.0179716
0.0179641
0.0179568
0.0179495
0.0179423
0.0179351
0.017928
0.017921
0.0179141
0.0179072
0.0179004
0.0178937
0.017887
0.0178804
0.0178739
0.0178675
0.0178611
0.0178547
0.0178485
0.0178423
0.0178362
0.0178301
0.0178242
0.0178183
0.0178125
0.0178066
0.017801
0.0177953
0.0177899
0.0177842
0.0177789
0.0177733
0.0177682
0.0177626
0.0177576
0.0177521
0.0177472
0.0177418
0.0177368
0.0177318
0.0177266
0.0177221
0.0177165
0.0177127
0.0177067
0.0177035
0.0176977
0.0176948
0.017689
0.00383058
0.0039065
0.00388325
0.00382035
0.003748
0.0036733
0.00362236
0.0035914
0.00360451
0.00366418
0.00380022
0.00404725
0.00439855
0.00487598
0.00546195
0.00615079
0.00690899
0.00771335
0.00852576
0.00932945
0.0100998
0.010829
0.0115087
0.0121383
0.0127176
0.0132478
0.0137306
0.014172
0.0145723
0.0149384
0.0152698
0.0155716
0.015846
0.0160962
0.0163238
0.0165321
0.0167207
0.0168937
0.017051
0.0171954
0.0173269
0.0174475
0.017558
0.0176585
0.0177509
0.0178354
0.017913
0.0179839
0.0180489
0.0181085
0.0181629
0.0182128
0.0182582
0.0182998
0.0183379
0.0183726
0.0184041
0.018433
0.0184592
0.0184829
0.0185044
0.0185238
0.0185412
0.0185569
0.0185708
0.0185833
0.0185944
0.0186041
0.0186125
0.0186198
0.018626
0.0186313
0.0186356
0.018639
0.0186416
0.0186435
0.0186447
0.0186452
0.0186451
0.0186446
0.0186434
0.0186417
0.0186397
0.0186372
0.0186342
0.018631
0.0186274
0.0186234
0.0186192
0.0186147
0.01861
0.018605
0.0185998
0.0185944
0.0185888
0.018583
0.018577
0.018571
0.0185648
0.0185585
0.0185521
0.0185455
0.0185389
0.0185322
0.0185254
0.0185186
0.0185117
0.0185047
0.0184977
0.0184907
0.0184836
0.0184765
0.0184694
0.0184622
0.0184551
0.0184479
0.0184408
0.0184336
0.0184264
0.0184193
0.0184121
0.018405
0.0183978
0.0183907
0.0183836
0.0183766
0.0183695
0.0183625
0.0183555
0.0183485
0.0183416
0.0183347
0.0183278
0.018321
0.0183142
0.0183074
0.0183007
0.018294
0.0182874
0.0182808
0.0182742
0.0182677
0.0182612
0.0182548
0.0182484
0.0182421
0.0182358
0.0182296
0.0182234
0.0182172
0.0182111
0.0182051
0.0181991
0.0181931
0.0181872
0.0181814
0.0181756
0.0181698
0.0181641
0.0181585
0.0181528
0.0181473
0.0181418
0.0181363
0.0181309
0.0181255
0.0181202
0.018115
0.0181097
0.0181046
0.0180995
0.0180945
0.0180894
0.0180846
0.0180796
0.0180748
0.01807
0.0180654
0.0180606
0.0180562
0.0180515
0.0180471
0.0180424
0.0180382
0.0180335
0.0180294
0.0180248
0.0180208
0.0180162
0.0180122
0.0180078
0.0180037
0.0179998
0.0179953
0.0179921
0.0179872
0.0179846
0.0179798
0.0179776
0.0179734
0.00381067
0.00390556
0.00389799
0.00386147
0.00380189
0.00373316
0.00366914
0.00360859
0.00356659
0.00353706
0.0035442
0.00358237
0.00367361
0.00384694
0.0040944
0.00443564
0.00486816
0.00539224
0.00599037
0.00664802
0.0073399
0.00804711
0.00874978
0.00943495
0.0100923
0.0107164
0.0113014
0.0118492
0.0123568
0.0128288
0.0132638
0.0136655
0.0140353
0.0143765
0.0146902
0.0149802
0.0152461
0.0154918
0.0157177
0.0159267
0.0161191
0.0162972
0.0164618
0.0166133
0.0167539
0.0168838
0.0170044
0.0171159
0.0172194
0.0173155
0.0174044
0.0174869
0.0175635
0.0176346
0.0177008
0.0177622
0.0178192
0.0178723
0.0179216
0.0179674
0.01801
0.0180496
0.0180863
0.0181205
0.0181521
0.0181816
0.0182089
0.0182342
0.0182577
0.0182794
0.0182994
0.018318
0.0183351
0.0183508
0.0183654
0.0183787
0.0183909
0.0184021
0.0184123
0.0184216
0.0184301
0.0184377
0.0184446
0.0184507
0.0184562
0.0184611
0.0184653
0.018469
0.0184722
0.0184749
0.018477
0.0184788
0.0184802
0.0184811
0.0184817
0.0184819
0.0184818
0.0184815
0.0184808
0.0184799
0.0184787
0.0184773
0.0184756
0.0184738
0.0184717
0.0184695
0.0184671
0.0184645
0.0184618
0.0184589
0.0184559
0.0184528
0.0184495
0.0184462
0.0184427
0.0184392
0.0184356
0.0184318
0.0184281
0.0184242
0.0184203
0.0184163
0.0184123
0.0184082
0.0184041
0.0184
0.0183958
0.0183915
0.0183873
0.018383
0.0183787
0.0183744
0.01837
0.0183657
0.0183613
0.018357
0.0183526
0.0183482
0.0183438
0.0183394
0.018335
0.0183307
0.0183263
0.0183219
0.0183176
0.0183132
0.0183089
0.0183046
0.0183002
0.0182959
0.0182917
0.0182874
0.0182832
0.018279
0.0182748
0.0182706
0.0182664
0.0182623
0.0182582
0.0182541
0.01825
0.018246
0.018242
0.018238
0.018234
0.0182301
0.0182262
0.0182223
0.0182185
0.0182147
0.0182109
0.0182072
0.0182035
0.0181998
0.0181962
0.0181926
0.018189
0.0181856
0.018182
0.0181787
0.0181752
0.018172
0.0181684
0.0181653
0.0181617
0.0181587
0.0181552
0.0181523
0.0181487
0.0181458
0.0181424
0.0181393
0.0181363
0.018133
0.0181306
0.018127
0.018125
0.0181216
0.0181201
0.0181176
0.00379118
0.00388825
0.00389569
0.00387646
0.00383419
0.00377757
0.00372032
0.0036588
0.00360395
0.00355041
0.0035139
0.00348267
0.00348288
0.00350325
0.00355788
0.0036695
0.0038365
0.00406991
0.00437562
0.00475578
0.00520496
0.00571609
0.00627488
0.00686728
0.00747689
0.00809237
0.00869884
0.00929101
0.00985934
0.010403
0.0109175
0.0114026
0.0118576
0.012284
0.0126818
0.013054
0.0133996
0.0137221
0.0140217
0.0143012
0.0145609
0.014803
0.0150286
0.0152382
0.0154338
0.015616
0.0157863
0.015945
0.0160935
0.0162321
0.0163616
0.0164827
0.0165961
0.0167021
0.0168016
0.0168947
0.016982
0.017064
0.0171409
0.0172131
0.0172808
0.0173445
0.0174043
0.0174606
0.0175135
0.0175632
0.01761
0.0176541
0.0176955
0.0177344
0.0177711
0.0178056
0.0178381
0.0178687
0.0178975
0.0179246
0.0179501
0.0179742
0.0179967
0.018018
0.018038
0.0180568
0.0180745
0.0180911
0.0181067
0.0181213
0.0181351
0.018148
0.01816
0.0181714
0.018182
0.0181919
0.0182011
0.0182098
0.0182179
0.0182254
0.0182323
0.0182388
0.0182448
0.0182504
0.0182555
0.0182603
0.0182646
0.0182686
0.0182722
0.0182755
0.0182785
0.0182812
0.0182836
0.0182858
0.0182877
0.0182893
0.0182908
0.018292
0.018293
0.0182938
0.0182944
0.0182949
0.0182951
0.0182953
0.0182952
0.0182951
0.0182948
0.0182943
0.0182938
0.0182931
0.0182923
0.0182914
0.0182905
0.0182894
0.0182882
0.018287
0.0182857
0.0182843
0.0182828
0.0182813
0.0182797
0.0182781
0.0182764
0.0182747
0.0182729
0.0182711
0.0182692
0.0182673
0.0182653
0.0182634
0.0182614
0.0182593
0.0182573
0.0182552
0.0182531
0.018251
0.0182488
0.0182467
0.0182445
0.0182423
0.0182401
0.0182379
0.0182357
0.0182335
0.0182313
0.0182291
0.0182268
0.0182246
0.0182224
0.0182202
0.0182179
0.0182157
0.0182135
0.0182113
0.0182091
0.0182069
0.0182047
0.0182027
0.0182005
0.0181984
0.0181962
0.0181942
0.0181921
0.0181902
0.018188
0.0181862
0.0181839
0.0181822
0.0181799
0.0181782
0.0181759
0.0181743
0.018172
0.0181703
0.018168
0.0181663
0.0181643
0.0181624
0.0181608
0.0181587
0.0181576
0.0181556
0.0181549
0.0181543
0.00377572
0.00385951
0.00388214
0.00387263
0.0038467
0.00380342
0.00375602
0.00370201
0.00365017
0.00359468
0.00354626
0.00349817
0.00346286
0.00343525
0.00342203
0.00343079
0.00345979
0.00352381
0.00363117
0.00378313
0.00398783
0.00425055
0.00457044
0.00494706
0.00537307
0.00584295
0.00634316
0.00686599
0.00739812
0.00793277
0.00846079
0.00897716
0.00947624
0.00995648
0.0104145
0.0108512
0.0112642
0.0116551
0.0120233
0.0123703
0.0126968
0.0130035
0.0132922
0.0135627
0.0138171
0.0140557
0.0142802
0.0144909
0.014689
0.0148754
0.0150504
0.0152152
0.0153702
0.0155162
0.0156537
0.0157833
0.0159055
0.0160209
0.0161297
0.0162325
0.0163295
0.0164213
0.0165081
0.0165902
0.0166679
0.0167414
0.0168111
0.0168771
0.0169396
0.0169989
0.0170551
0.0171085
0.0171591
0.0172072
0.0172528
0.0172962
0.0173374
0.0173765
0.0174137
0.0174491
0.0174827
0.0175147
0.0175452
0.0175741
0.0176017
0.0176279
0.0176529
0.0176767
0.0176993
0.0177208
0.0177414
0.0177609
0.0177795
0.0177972
0.0178141
0.0178302
0.0178455
0.0178601
0.017874
0.0178872
0.0178998
0.0179118
0.0179232
0.0179341
0.0179445
0.0179543
0.0179637
0.0179726
0.0179811
0.0179892
0.0179969
0.0180042
0.0180111
0.0180177
0.0180239
0.0180299
0.0180355
0.0180409
0.018046
0.0180508
0.0180553
0.0180596
0.0180637
0.0180676
0.0180712
0.0180747
0.0180779
0.018081
0.0180839
0.0180866
0.0180892
0.0180916
0.0180938
0.0180959
0.0180979
0.0180997
0.0181015
0.0181031
0.0181045
0.0181059
0.0181072
0.0181084
0.0181094
0.0181104
0.0181113
0.0181121
0.0181129
0.0181135
0.0181141
0.0181147
0.0181151
0.0181155
0.0181158
0.0181161
0.0181163
0.0181165
0.0181166
0.0181167
0.0181167
0.0181167
0.0181166
0.0181165
0.0181164
0.0181162
0.018116
0.0181158
0.0181155
0.0181153
0.0181149
0.0181146
0.0181143
0.018114
0.0181135
0.0181132
0.0181128
0.0181124
0.0181119
0.0181116
0.0181111
0.0181108
0.0181103
0.01811
0.0181094
0.0181091
0.0181084
0.0181081
0.0181074
0.0181071
0.0181063
0.018106
0.0181052
0.0181049
0.0181042
0.0181038
0.0181034
0.0181029
0.0181027
0.0181024
0.0181027
0.0181041
0.00376521
0.00382738
0.00385897
0.00385672
0.00384317
0.00381327
0.00377564
0.00373068
0.00368525
0.00363542
0.00358783
0.00353892
0.00349331
0.00345222
0.00341583
0.00338961
0.00336808
0.00336754
0.00337892
0.0034095
0.00347196
0.00356665
0.00369591
0.00386782
0.00408347
0.00434602
0.00465249
0.00500246
0.00538862
0.00580619
0.00624645
0.00670293
0.00716682
0.0076331
0.00809486
0.00854935
0.00899169
0.00942043
0.00983301
0.0102289
0.0106075
0.0109681
0.0113119
0.0116379
0.0119476
0.0122407
0.0125188
0.0127818
0.013031
0.0132668
0.0134899
0.013701
0.0139009
0.0140901
0.0142692
0.0144389
0.0145997
0.0147522
0.0148966
0.0150337
0.0151638
0.0152873
0.0154046
0.015516
0.015622
0.0157227
0.0158185
0.0159097
0.0159965
0.0160791
0.0161579
0.0162329
0.0163045
0.0163728
0.0164379
0.0165
0.0165594
0.0166161
0.0166702
0.016722
0.0167715
0.0168188
0.0168641
0.0169075
0.0169489
0.0169887
0.0170267
0.0170631
0.017098
0.0171315
0.0171636
0.0171943
0.0172238
0.0172522
0.0172793
0.0173054
0.0173304
0.0173545
0.0173776
0.0173997
0.017421
0.0174415
0.0174612
0.0174801
0.0174983
0.0175158
0.0175326
0.0175488
0.0175644
0.0175793
0.0175938
0.0176076
0.017621
0.0176339
0.0176462
0.0176582
0.0176697
0.0176807
0.0176914
0.0177017
0.0177116
0.0177211
0.0177303
0.0177392
0.0177477
0.0177559
0.0177639
0.0177715
0.0177789
0.0177861
0.0177929
0.0177996
0.017806
0.0178121
0.0178181
0.0178239
0.0178294
0.0178348
0.0178399
0.0178449
0.0178497
0.0178544
0.0178589
0.0178632
0.0178674
0.0178715
0.0178754
0.0178792
0.0178829
0.0178864
0.0178898
0.0178931
0.0178963
0.0178994
0.0179024
0.0179053
0.0179081
0.0179108
0.0179134
0.0179159
0.0179184
0.0179207
0.017923
0.0179252
0.0179274
0.0179295
0.0179315
0.0179334
0.0179353
0.0179372
0.017939
0.0179407
0.0179424
0.0179441
0.0179457
0.0179473
0.0179488
0.0179504
0.0179518
0.0179534
0.0179547
0.0179562
0.0179574
0.0179589
0.0179599
0.0179614
0.0179624
0.0179638
0.0179647
0.0179661
0.0179668
0.0179682
0.017969
0.0179703
0.0179712
0.0179725
0.0179735
0.017975
0.0179764
0.0179801
0.0037587
0.00379755
0.00382985
0.00383366
0.00382762
0.00380974
0.00378126
0.00374522
0.00370688
0.0036642
0.0036211
0.0035765
0.00353164
0.00348904
0.00344608
0.0034088
0.00337326
0.00334536
0.00332447
0.00330951
0.00331133
0.00332338
0.00335168
0.00340573
0.00348333
0.00358886
0.00372598
0.00389855
0.00410622
0.00435077
0.00463003
0.00494256
0.0052831
0.00564802
0.00603091
0.00642743
0.00683142
0.00723875
0.00764487
0.00804625
0.00844072
0.00882511
0.00919901
0.00956016
0.00990861
0.0102433
0.0105646
0.010872
0.0111662
0.0114471
0.0117153
0.011971
0.0122148
0.012447
0.0126683
0.0128791
0.0130798
0.0132713
0.0134535
0.0136272
0.0137927
0.0139505
0.0141009
0.0142445
0.0143814
0.0145121
0.014637
0.0147561
0.0148699
0.0149787
0.0150827
0.0151821
0.0152773
0.0153684
0.0154555
0.015539
0.015619
0.0156956
0.015769
0.0158395
0.0159071
0.0159719
0.0160342
0.0160939
0.0161513
0.0162065
0.0162595
0.0163105
0.0163595
0.0164067
0.016452
0.0164957
0.0165377
0.0165782
0.0166172
0.0166548
0.016691
0.016726
0.0167596
0.0167921
0.0168235
0.0168537
0.0168829
0.0169111
0.0169383
0.0169646
0.01699
0.0170146
0.0170383
0.0170613
0.0170835
0.017105
0.0171257
0.0171458
0.0171653
0.0171841
0.0172023
0.01722
0.0172371
0.0172537
0.0172697
0.0172853
0.0173004
0.017315
0.0173292
0.017343
0.0173563
0.0173693
0.0173819
0.0173941
0.0174059
0.0174174
0.0174286
0.0174395
0.01745
0.0174603
0.0174702
0.0174799
0.0174894
0.0174985
0.0175074
0.0175161
0.0175245
0.0175327
0.0175407
0.0175485
0.0175561
0.0175635
0.0175707
0.0175777
0.0175845
0.0175912
0.0175976
0.017604
0.0176101
0.0176161
0.017622
0.0176277
0.0176333
0.0176388
0.0176441
0.0176493
0.0176544
0.0176593
0.0176642
0.0176689
0.0176735
0.0176781
0.0176825
0.0176868
0.0176911
0.0176953
0.0176993
0.0177034
0.0177072
0.0177112
0.0177149
0.0177187
0.0177222
0.017726
0.0177294
0.017733
0.0177363
0.0177398
0.0177428
0.0177463
0.0177492
0.0177526
0.0177553
0.0177586
0.0177612
0.0177645
0.0177669
0.0177702
0.0177726
0.017776
0.0177783
0.0177819
0.0177845
0.0177908
0.00375413
0.00377375
0.0037992
0.00380679
0.00380454
0.00379516
0.00377557
0.00374749
0.00371607
0.00368047
0.00364297
0.00360381
0.00356299
0.00352292
0.00348154
0.00344247
0.00340354
0.00336709
0.00333508
0.0033054
0.00328193
0.00326446
0.00325281
0.00325454
0.00326444
0.00328736
0.0033297
0.00339087
0.00347211
0.00357826
0.00371059
0.00387128
0.00406024
0.00427833
0.00452398
0.00479575
0.00509048
0.00540501
0.00573566
0.00607803
0.00642914
0.00678429
0.00714136
0.00749659
0.00784837
0.00819412
0.00853288
0.00886292
0.00918378
0.00949459
0.00979518
0.0100851
0.0103645
0.0106331
0.0108914
0.0111393
0.0113771
0.0116053
0.011824
0.0120336
0.0122343
0.0124268
0.012611
0.0127876
0.0129568
0.0131189
0.0132743
0.0134232
0.013566
0.0137028
0.0138341
0.0139601
0.0140809
0.0141969
0.0143083
0.0144152
0.014518
0.0146167
0.0147115
0.0148028
0.0148905
0.0149749
0.0150561
0.0151344
0.0152096
0.0152822
0.0153521
0.0154194
0.0154843
0.015547
0.0156074
0.0156656
0.0157219
0.0157762
0.0158286
0.0158793
0.0159282
0.0159755
0.0160212
0.0160655
0.0161082
0.0161496
0.0161897
0.0162284
0.0162659
0.0163023
0.0163375
0.0163716
0.0164047
0.0164367
0.0164678
0.0164979
0.0165272
0.0165555
0.0165831
0.0166098
0.0166357
0.0166609
0.0166854
0.0167092
0.0167323
0.0167547
0.0167766
0.0167978
0.0168185
0.0168385
0.0168581
0.0168771
0.0168956
0.0169136
0.0169312
0.0169482
0.0169649
0.0169811
0.0169969
0.0170123
0.0170273
0.017042
0.0170563
0.0170702
0.0170838
0.017097
0.01711
0.0171226
0.0171349
0.017147
0.0171587
0.0171702
0.0171814
0.0171924
0.0172031
0.0172136
0.0172238
0.0172339
0.0172437
0.0172532
0.0172626
0.0172718
0.0172808
0.0172896
0.0172982
0.0173066
0.0173148
0.0173229
0.0173309
0.0173386
0.0173462
0.0173537
0.017361
0.0173682
0.0173752
0.0173822
0.0173889
0.0173956
0.0174022
0.0174087
0.0174149
0.0174212
0.0174273
0.0174334
0.0174393
0.0174453
0.0174509
0.0174567
0.017462
0.0174677
0.0174729
0.0174785
0.0174833
0.0174888
0.0174934
0.0174988
0.0175032
0.0175087
0.0175129
0.0175185
0.0175224
0.0175283
0.0175322
0.0175414
0.00375061
0.00375655
0.00377091
0.00377849
0.00377796
0.00377301
0.00376071
0.0037398
0.00371457
0.00368543
0.00365368
0.00362001
0.00358417
0.00354803
0.00351039
0.00347316
0.00343583
0.00339875
0.00336373
0.00332933
0.00329755
0.00326951
0.00324371
0.00322298
0.00320774
0.00319648
0.00319696
0.00320339
0.00321917
0.00325013
0.00329507
0.00335573
0.00343404
0.00353258
0.00365241
0.00379458
0.00395968
0.0041477
0.00435838
0.00458982
0.00484102
0.00510872
0.00539124
0.00568498
0.00598783
0.00629649
0.00660892
0.00692232
0.00723509
0.00754511
0.00785126
0.00815212
0.00844689
0.0087347
0.00901503
0.00928756
0.00955179
0.00980793
0.0100556
0.010295
0.0105261
0.0107491
0.0109641
0.0111713
0.0113709
0.0115632
0.0117484
0.0119267
0.0120984
0.0122636
0.0124227
0.0125758
0.0127233
0.0128653
0.0130021
0.0131338
0.0132607
0.013383
0.0135009
0.0136145
0.013724
0.0138296
0.0139315
0.0140298
0.0141247
0.0142163
0.0143047
0.0143901
0.0144726
0.0145523
0.0146294
0.0147038
0.0147759
0.0148456