/*--------------------------------*- C++ -*----------------------------------*\
  =========                 |
  \\      /  F ield         | OpenFOAM: The Open Source CFD Toolbox
   \\    /   O peration     | Website:  https://openfoam.org
    \\  /    A nd           | Version:  12
     \\/     M anipulation  |
\*---------------------------------------------------------------------------*/
FoamFile
{
    format      ascii;
    class       volScalarField;
    location    "1000";
    object      nut;
}
// * * * * * * * * * * * * * * * * * * * * * * * * * * * * * * * * * * * * * //

dimensions      [0 2 -1 0 0 0 0];

internalField   nonuniform List<scalar> 
20000
(
1.76054e-06
6.61329e-07
7.32545e-07
9.77652e-07
1.13844e-06
1.26656e-06
1.39382e-06
1.52822e-06
1.6397e-06
1.74281e-06
1.81192e-06
1.88675e-06
1.93479e-06
1.9829e-06
2.0239e-06
2.06135e-06
2.08984e-06
2.11451e-06
2.13409e-06
2.15187e-06
2.16521e-06
2.17646e-06
2.18533e-06
2.19237e-06
2.19825e-06
2.20207e-06
2.20489e-06
2.2066e-06
2.20705e-06
2.20681e-06
2.20607e-06
2.20449e-06
2.2023e-06
2.19976e-06
2.19668e-06
2.19329e-06
2.18975e-06
2.18591e-06
2.18169e-06
2.17745e-06
2.1729e-06
2.1683e-06
2.16352e-06
2.15867e-06
2.15379e-06
2.14882e-06
2.14375e-06
2.13871e-06
2.13356e-06
2.12847e-06
2.12333e-06
2.11824e-06
2.11308e-06
2.10797e-06
2.1029e-06
2.09785e-06
2.09282e-06
2.08782e-06
2.08286e-06
2.07794e-06
2.07305e-06
2.06821e-06
2.0634e-06
2.05865e-06
2.05391e-06
2.04925e-06
2.04462e-06
2.04005e-06
2.03552e-06
2.03105e-06
2.02662e-06
2.02225e-06
2.01792e-06
2.01364e-06
2.00941e-06
2.00523e-06
2.00111e-06
1.99703e-06
1.99301e-06
1.98903e-06
1.98511e-06
1.98123e-06
1.9774e-06
1.97361e-06
1.96987e-06
1.96619e-06
1.96254e-06
1.95895e-06
1.9554e-06
1.95189e-06
1.94843e-06
1.94501e-06
1.94164e-06
1.93831e-06
1.93502e-06
1.93177e-06
1.92856e-06
1.92539e-06
1.92227e-06
1.91919e-06
1.91614e-06
1.91313e-06
1.91016e-06
1.90723e-06
1.90434e-06
1.90148e-06
1.89866e-06
1.89587e-06
1.89312e-06
1.89041e-06
1.88772e-06
1.88508e-06
1.88246e-06
1.87988e-06
1.87733e-06
1.87481e-06
1.87232e-06
1.86987e-06
1.86744e-06
1.86505e-06
1.86268e-06
1.86035e-06
1.85804e-06
1.85576e-06
1.85351e-06
1.85129e-06
1.84909e-06
1.84692e-06
1.84478e-06
1.84266e-06
1.84058e-06
1.83851e-06
1.83647e-06
1.83445e-06
1.83247e-06
1.8305e-06
1.82856e-06
1.82663e-06
1.82474e-06
1.82287e-06
1.82102e-06
1.81919e-06
1.81738e-06
1.81559e-06
1.81383e-06
1.81209e-06
1.81036e-06
1.80866e-06
1.80698e-06
1.80532e-06
1.80368e-06
1.80205e-06
1.80045e-06
1.79886e-06
1.7973e-06
1.79575e-06
1.79422e-06
1.79271e-06
1.79122e-06
1.78974e-06
1.78828e-06
1.78683e-06
1.78541e-06
1.784e-06
1.7826e-06
1.78123e-06
1.77986e-06
1.77852e-06
1.77719e-06
1.77588e-06
1.77458e-06
1.7733e-06
1.77203e-06
1.77078e-06
1.76953e-06
1.76831e-06
1.7671e-06
1.76591e-06
1.76473e-06
1.76356e-06
1.76241e-06
1.76125e-06
1.76013e-06
1.75898e-06
1.7579e-06
1.75676e-06
1.75571e-06
1.75454e-06
1.75356e-06
1.75233e-06
1.75147e-06
1.75012e-06
1.74942e-06
1.74793e-06
1.74733e-06
1.74583e-06
1.74521e-06
1.74366e-06
1.74315e-06
1.74075e-06
3.0855e-05
2.66405e-05
2.94443e-05
3.91742e-05
4.69983e-05
5.46598e-05
6.26769e-05
7.10304e-05
7.83302e-05
8.51853e-05
9.04218e-05
9.59486e-05
9.99168e-05
0.000103956
0.000107527
0.00011082
0.000113594
0.000116104
0.000118299
0.000120333
0.00012208
0.000123666
0.000125078
0.000126353
0.000127516
0.00012853
0.000129455
0.000130284
0.000131015
0.000131676
0.000132282
0.000132813
0.000133288
0.000133718
0.000134097
0.000134437
0.000134748
0.000135022
0.000135259
0.000135477
0.000135662
0.000135828
0.000135969
0.000136093
0.000136201
0.000136292
0.000136365
0.000136428
0.000136475
0.000136514
0.00013654
0.000136559
0.000136565
0.000136566
0.00013656
0.000136547
0.000136527
0.000136502
0.000136472
0.000136437
0.000136397
0.000136353
0.000136305
0.000136255
0.0001362
0.000136143
0.000136084
0.000136022
0.000135958
0.000135893
0.000135825
0.000135755
0.000135684
0.000135613
0.000135539
0.000135465
0.00013539
0.000135315
0.000135238
0.000135161
0.000135084
0.000135006
0.000134928
0.000134849
0.00013477
0.000134691
0.000134612
0.000134533
0.000134454
0.000134375
0.000134296
0.000134218
0.000134139
0.00013406
0.000133982
0.000133904
0.000133827
0.000133749
0.000133672
0.000133596
0.00013352
0.000133444
0.000133368
0.000133293
0.000133219
0.000133145
0.000133071
0.000132998
0.000132926
0.000132854
0.000132782
0.000132711
0.00013264
0.000132571
0.000132501
0.000132432
0.000132364
0.000132296
0.000132229
0.000132162
0.000132096
0.00013203
0.000131965
0.000131901
0.000131837
0.000131773
0.000131711
0.000131648
0.000131587
0.000131526
0.000131465
0.000131405
0.000131346
0.000131287
0.000131228
0.00013117
0.000131113
0.000131056
0.000131
0.000130945
0.00013089
0.000130835
0.000130781
0.000130728
0.000130675
0.000130622
0.00013057
0.000130519
0.000130468
0.000130417
0.000130368
0.000130318
0.000130269
0.000130221
0.000130173
0.000130126
0.000130079
0.000130032
0.000129986
0.000129941
0.000129896
0.000129851
0.000129807
0.000129763
0.00012972
0.000129677
0.000129635
0.000129593
0.000129552
0.000129511
0.00012947
0.000129431
0.000129391
0.000129352
0.000129313
0.000129275
0.000129237
0.0001292
0.000129163
0.000129127
0.00012909
0.000129055
0.000129019
0.000128984
0.000128949
0.000128914
0.00012888
0.000128845
0.000128812
0.000128774
0.000128747
0.000128703
0.000128684
0.000128632
0.000128619
0.000128566
0.000128552
0.000128498
0.000128491
0.000128378
0.000184607
6.36387e-05
4.74309e-05
5.2672e-05
6.47073e-05
8.11493e-05
9.89911e-05
0.000117457
0.000134256
0.000150395
0.000164013
0.000177877
0.00018917
0.000200377
0.00021063
0.000220254
0.000228706
0.000236597
0.000243739
0.000250436
0.000256423
0.000261998
0.000267111
0.000271855
0.000276266
0.000280296
0.000284029
0.000287499
0.000290692
0.000293669
0.000296463
0.000299031
0.000301423
0.000303666
0.000305745
0.000307692
0.000309535
0.000311246
0.000312841
0.000314352
0.000315757
0.000317084
0.000318324
0.000319493
0.0003206
0.000321636
0.000322611
0.000323534
0.000324399
0.000325221
0.000325994
0.000326728
0.000327413
0.000328067
0.000328687
0.000329274
0.000329828
0.000330353
0.000330853
0.000331325
0.000331773
0.000332198
0.0003326
0.000332983
0.000333343
0.000333688
0.000334014
0.000334326
0.00033462
0.000334901
0.000335166
0.000335419
0.000335659
0.000335887
0.000336104
0.00033631
0.000336506
0.000336694
0.00033687
0.000337039
0.0003372
0.000337352
0.000337497
0.000337635
0.000337765
0.00033789
0.000338008
0.000338121
0.000338227
0.000338329
0.000338425
0.000338516
0.000338603
0.000338685
0.000338763
0.000338837
0.000338906
0.000338972
0.000339036
0.000339095
0.000339152
0.000339205
0.000339255
0.000339303
0.000339348
0.00033939
0.00033943
0.000339468
0.000339503
0.000339536
0.000339567
0.000339597
0.000339624
0.00033965
0.000339674
0.000339697
0.000339717
0.000339737
0.000339755
0.000339772
0.000339787
0.000339801
0.000339815
0.000339827
0.000339838
0.000339848
0.000339857
0.000339865
0.000339872
0.000339878
0.000339884
0.000339889
0.000339893
0.000339896
0.000339899
0.000339902
0.000339903
0.000339904
0.000339905
0.000339905
0.000339905
0.000339904
0.000339902
0.000339901
0.000339899
0.000339896
0.000339894
0.000339891
0.000339887
0.000339884
0.00033988
0.000339876
0.000339871
0.000339867
0.000339862
0.000339857
0.000339852
0.000339847
0.000339842
0.000339836
0.00033983
0.000339824
0.000339819
0.000339813
0.000339807
0.000339801
0.000339794
0.000339789
0.000339782
0.000339777
0.00033977
0.000339765
0.000339759
0.000339754
0.000339747
0.000339743
0.000339736
0.000339734
0.000339727
0.000339725
0.000339716
0.000339716
0.000339706
0.000339706
0.000339694
0.000339697
0.000339684
0.000339687
0.000339673
0.000339673
0.000339664
0.000339656
0.000339662
0.000339637
0.000339655
0.000339628
0.000339645
0.000339627
0.000339643
0.000339559
0.000741316
0.000184418
0.000105283
7.55225e-05
7.64279e-05
8.8093e-05
0.000104054
0.000124345
0.000145382
0.000167334
0.000187676
0.000208506
0.000227432
0.000245868
0.000263203
0.000279642
0.000294314
0.00030834
0.000321222
0.000333407
0.000344451
0.000354882
0.000364547
0.000373625
0.000382133
0.000390012
0.000397388
0.000404312
0.000410771
0.000416862
0.000422572
0.000427925
0.000432963
0.000437723
0.000442186
0.000446409
0.000450431
0.000454203
0.000457765
0.000461162
0.000464362
0.000467407
0.000470286
0.000473027
0.000475643
0.00047812
0.000480477
0.000482729
0.000484865
0.000486914
0.000488862
0.000490729
0.000492498
0.000494202
0.000495832
0.000497392
0.000498885
0.000500316
0.000501691
0.000503008
0.000504272
0.000505485
0.00050665
0.00050777
0.000508843
0.00050988
0.000510876
0.000511837
0.00051276
0.00051365
0.000514507
0.000515334
0.000516131
0.000516901
0.000517643
0.000518361
0.000519053
0.000519724
0.00052037
0.000520996
0.000521602
0.000522188
0.000522755
0.000523303
0.000523835
0.00052435
0.000524849
0.000525333
0.000525802
0.000526257
0.000526698
0.000527126
0.000527541
0.000527945
0.000528336
0.000528717
0.000529086
0.000529445
0.000529795
0.000530135
0.000530465
0.000530787
0.0005311
0.000531404
0.000531701
0.00053199
0.000532271
0.000532545
0.000532812
0.000533073
0.000533327
0.000533575
0.000533816
0.000534052
0.000534282
0.000534507
0.000534726
0.00053494
0.000535149
0.000535354
0.000535553
0.000535749
0.000535939
0.000536126
0.000536309
0.000536488
0.000536662
0.000536834
0.000537001
0.000537165
0.000537326
0.000537483
0.000537637
0.000537788
0.000537936
0.000538081
0.000538223
0.000538363
0.0005385
0.000538634
0.000538766
0.000538895
0.000539022
0.000539147
0.000539269
0.000539389
0.000539508
0.000539624
0.000539738
0.00053985
0.000539961
0.000540069
0.000540176
0.000540281
0.000540384
0.000540486
0.000540585
0.000540684
0.000540781
0.000540877
0.00054097
0.000541063
0.000541154
0.000541245
0.000541333
0.000541421
0.000541507
0.000541592
0.000541675
0.00054176
0.000541841
0.000541924
0.000542003
0.000542085
0.000542161
0.000542241
0.000542316
0.000542398
0.00054247
0.000542552
0.000542619
0.000542701
0.000542764
0.000542846
0.000542904
0.00054299
0.000543043
0.000543129
0.000543176
0.000543258
0.00054331
0.000543383
0.000543449
0.000543502
0.000543587
0.000543629
0.000543712
0.000543775
0.000543847
0.000543861
0.00150222
0.000491302
0.000263256
0.000158028
0.000116012
0.00010321
0.000105616
0.0001176
0.000134641
0.000157054
0.000180588
0.000205651
0.000230105
0.000253962
0.000276846
0.000299133
0.000319791
0.000339568
0.000358203
0.00037601
0.000392296
0.000408013
0.000422673
0.000436636
0.000449782
0.000462056
0.000473657
0.000484616
0.000494916
0.000504705
0.000513895
0.000522593
0.000530834
0.000538655
0.000546047
0.000553082
0.00055976
0.000566108
0.000572129
0.000577894
0.000583356
0.000588577
0.000593536
0.000598284
0.000602832
0.000607157
0.000611298
0.000615266
0.000619056
0.000622701
0.000626185
0.000629536
0.000632729
0.000635819
0.000638785
0.000641634
0.000644373
0.000647013
0.000649556
0.000652004
0.000654364
0.000656638
0.000658832
0.000660949
0.000662988
0.000664966
0.000666873
0.000668719
0.000670501
0.000672227
0.000673895
0.000675512
0.000677076
0.000678593
0.000680063
0.000681488
0.000682871
0.000684213
0.000685514
0.000686778
0.000688007
0.000689199
0.000690358
0.000691484
0.000692579
0.000693645
0.000694681
0.00069569
0.000696672
0.000697628
0.000698559
0.000699466
0.00070035
0.000701211
0.000702051
0.00070287
0.000703668
0.000704448
0.000705209
0.000705951
0.000706677
0.000707385
0.000708077
0.000708753
0.000709413
0.000710059
0.00071069
0.000711308
0.000711912
0.000712503
0.000713081
0.000713647
0.0007142
0.000714743
0.000715274
0.000715795
0.000716304
0.000716804
0.000717294
0.000717774
0.000718244
0.000718706
0.000719159
0.000719603
0.000720039
0.000720467
0.000720886
0.000721298
0.000721703
0.0007221
0.000722491
0.000722874
0.000723251
0.000723621
0.000723985
0.000724342
0.000724694
0.000725039
0.000725379
0.000725714
0.000726043
0.000726366
0.000726685
0.000726998
0.000727307
0.00072761
0.00072791
0.000728204
0.000728494
0.00072878
0.000729062
0.000729339
0.000729612
0.000729882
0.000730147
0.000730409
0.000730667
0.000730921
0.000731172
0.00073142
0.000731664
0.000731904
0.000732142
0.000732377
0.000732608
0.000732836
0.000733061
0.000733284
0.000733503
0.000733722
0.000733936
0.000734151
0.000734359
0.000734571
0.000734773
0.000734979
0.000735176
0.000735384
0.000735577
0.000735781
0.000735965
0.000736168
0.000736344
0.000736546
0.000736712
0.000736917
0.000737075
0.000737278
0.000737425
0.000737623
0.000737771
0.000737959
0.000738119
0.000738285
0.000738463
0.000738616
0.000738787
0.00073897
0.000739117
0.000739287
0.00202514
0.000999402
0.000588431
0.000356128
0.000242838
0.000176831
0.000145629
0.000134436
0.00013499
0.000145406
0.00016184
0.000183387
0.000207591
0.000233382
0.000259474
0.000285849
0.000311542
0.000336617
0.0003606
0.000383861
0.000405673
0.000426649
0.000446466
0.000465515
0.000483402
0.000500262
0.000516405
0.000531722
0.000546227
0.000560105
0.000573151
0.000585615
0.000597484
0.000608793
0.000619548
0.000629836
0.000639596
0.000648955
0.000657869
0.000666431
0.000674574
0.000682386
0.000689849
0.000696985
0.000703843
0.000710405
0.000716707
0.000722759
0.000728564
0.000734157
0.000739521
0.000744689
0.000749636
0.000754437
0.000759052
0.000763496
0.000767782
0.000771924
0.000775923
0.000779784
0.000783514
0.000787118
0.000790603
0.000793974
0.000797231
0.000800397
0.000803455
0.000806421
0.000809293
0.00081208
0.000814781
0.000817404
0.000819947
0.000822419
0.000824819
0.000827151
0.000829418
0.000831623
0.000833764
0.000835851
0.000837882
0.000839857
0.000841781
0.000843654
0.000845479
0.000847259
0.000848992
0.000850683
0.000852332
0.000853941
0.00085551
0.000857041
0.000858536
0.000859996
0.000861422
0.000862815
0.000864175
0.000865506
0.000866807
0.000868078
0.000869323
0.000870539
0.00087173
0.000872895
0.000874036
0.000875153
0.000876246
0.000877317
0.000878366
0.000879394
0.000880401
0.000881389
0.000882357
0.000883307
0.000884237
0.000885151
0.000886047
0.000886927
0.000887789
0.000888637
0.000889467
0.000890284
0.000891086
0.000891874
0.000892648
0.000893409
0.000894156
0.00089489
0.000895612
0.000896322
0.000897019
0.000897705
0.000898381
0.000899044
0.000899698
0.00090034
0.000900973
0.000901595
0.000902208
0.000902811
0.000903405
0.00090399
0.000904566
0.000905134
0.000905693
0.000906244
0.000906787
0.000907322
0.000907849
0.000908368
0.000908881
0.000909386
0.000909884
0.000910375
0.00091086
0.000911338
0.000911809
0.000912274
0.000912733
0.000913186
0.000913632
0.000914073
0.000914508
0.000914939
0.000915362
0.000915781
0.000916195
0.000916604
0.000917006
0.000917407
0.0009178
0.000918193
0.000918577
0.000918963
0.000919336
0.000919712
0.000920076
0.000920452
0.000920808
0.000921177
0.000921521
0.000921885
0.000922216
0.000922575
0.000922893
0.000923253
0.000923557
0.000923914
0.000924202
0.00092455
0.000924833
0.000925171
0.000925459
0.000925776
0.000926075
0.00092638
0.000926662
0.000927008
0.000927245
0.000927636
0.00226807
0.00154539
0.00104276
0.000695856
0.000495012
0.000353919
0.000271954
0.000215474
0.000184331
0.00016989
0.000166788
0.000173414
0.000187045
0.000206256
0.000228957
0.000254333
0.00028094
0.000308312
0.000335493
0.000362578
0.000388768
0.000414279
0.000438785
0.000462505
0.000485224
0.00050686
0.000527623
0.000547521
0.000566537
0.000584804
0.000601971
0.00061858
0.000634434
0.000649588
0.000664083
0.000677999
0.0006912
0.000703912
0.000716054
0.00072775
0.000738909
0.000749659
0.000759962
0.000769824
0.000779332
0.000788465
0.000797263
0.000805726
0.000813874
0.00082174
0.0008293
0.000836599
0.000843621
0.000850417
0.000856982
0.000863318
0.000869446
0.000875379
0.000881115
0.000886664
0.000892035
0.000897236
0.000902273
0.000907152
0.00091188
0.000916482
0.000920932
0.000925256
0.00092945
0.000933525
0.000937483
0.000941331
0.00094507
0.000948707
0.000952245
0.000955687
0.000959039
0.000962303
0.000965476
0.000968576
0.000971594
0.000974534
0.000977401
0.000980197
0.000982924
0.000985587
0.000988184
0.000990721
0.000993197
0.000995616
0.000997978
0.00100029
0.00100254
0.00100475
0.00100691
0.00100901
0.00101108
0.0010131
0.00101507
0.00101701
0.0010189
0.00102075
0.00102257
0.00102435
0.00102609
0.0010278
0.00102948
0.00103112
0.00103273
0.00103431
0.00103585
0.00103737
0.00103886
0.00104033
0.00104176
0.00104317
0.00104456
0.00104592
0.00104725
0.00104856
0.00104985
0.00105112
0.00105236
0.00105359
0.00105479
0.00105597
0.00105714
0.00105828
0.00105941
0.00106051
0.0010616
0.00106267
0.00106373
0.00106477
0.00106579
0.00106679
0.00106778
0.00106876
0.00106972
0.00107067
0.0010716
0.00107252
0.00107342
0.00107432
0.00107519
0.00107606
0.00107692
0.00107776
0.00107859
0.00107941
0.00108022
0.00108101
0.0010818
0.00108257
0.00108334
0.00108409
0.00108484
0.00108557
0.0010863
0.00108702
0.00108772
0.00108842
0.00108911
0.00108979
0.00109046
0.00109112
0.00109178
0.00109243
0.00109307
0.0010937
0.00109432
0.00109495
0.00109555
0.00109616
0.00109676
0.00109735
0.00109793
0.00109852
0.00109909
0.00109967
0.00110022
0.00110079
0.00110132
0.00110188
0.00110239
0.00110295
0.00110344
0.00110399
0.00110447
0.001105
0.00110546
0.00110599
0.00110644
0.00110695
0.0011074
0.00110791
0.00110832
0.00110888
0.00110922
0.0011099
0.00235558
0.00196649
0.00150164
0.00111653
0.000855009
0.000645519
0.000506363
0.000397062
0.000323135
0.00026779
0.000232106
0.000212114
0.000203279
0.000204462
0.000213189
0.00022827
0.000247959
0.000271279
0.000296707
0.000323734
0.000351289
0.000379083
0.000406587
0.00043371
0.000460232
0.00048595
0.000510835
0.000534945
0.000558142
0.000580633
0.000602076
0.000622769
0.000642671
0.000661791
0.000680221
0.000697941
0.000714765
0.000731132
0.000746792
0.000761921
0.000776395
0.000790429
0.000803883
0.000816792
0.000829281
0.000841307
0.000852923
0.000864109
0.000874921
0.00088537
0.000895429
0.000905161
0.000914558
0.000923649
0.000932453
0.000940966
0.000949204
0.000957195
0.000964926
0.000972421
0.000979686
0.000986736
0.000993572
0.00100021
0.00100665
0.00101291
0.001019
0.00102491
0.00103065
0.00103624
0.00104167
0.00104697
0.00105211
0.00105713
0.00106201
0.00106677
0.0010714
0.00107592
0.00108032
0.00108463
0.00108882
0.00109291
0.0010969
0.0011008
0.00110461
0.00110833
0.00111196
0.00111551
0.00111898
0.00112238
0.00112569
0.00112894
0.00113211
0.00113521
0.00113825
0.00114123
0.00114414
0.00114699
0.00114978
0.00115252
0.0011552
0.00115783
0.0011604
0.00116293
0.0011654
0.00116783
0.00117021
0.00117255
0.00117484
0.00117709
0.0011793
0.00118147
0.00118359
0.00118568
0.00118774
0.00118975
0.00119174
0.00119368
0.0011956
0.00119748
0.00119932
0.00120114
0.00120293
0.00120469
0.00120642
0.00120812
0.00120979
0.00121144
0.00121306
0.00121466
0.00121623
0.00121777
0.00121929
0.00122079
0.00122227
0.00122372
0.00122515
0.00122657
0.00122796
0.00122933
0.00123068
0.00123201
0.00123332
0.00123461
0.00123589
0.00123714
0.00123838
0.00123961
0.00124081
0.001242
0.00124317
0.00124433
0.00124547
0.0012466
0.00124772
0.00124881
0.0012499
0.00125097
0.00125202
0.00125307
0.00125409
0.00125511
0.00125611
0.00125711
0.00125809
0.00125905
0.00126001
0.00126095
0.00126188
0.00126281
0.00126372
0.00126462
0.00126551
0.0012664
0.00126727
0.00126813
0.00126898
0.00126983
0.00127066
0.0012715
0.00127231
0.00127313
0.00127392
0.00127472
0.00127548
0.00127628
0.00127702
0.0012778
0.00127851
0.00127927
0.00127995
0.00128071
0.00128138
0.00128212
0.00128276
0.00128351
0.0012841
0.00128492
0.00128539
0.00128642
0.00237522
0.00222148
0.0018744
0.00152468
0.00125198
0.001009
0.000828869
0.00067568
0.000559795
0.000463309
0.000390928
0.000332951
0.00029118
0.000264177
0.000247954
0.000241774
0.000243875
0.000253106
0.00026791
0.000287305
0.000309914
0.000334905
0.000361349
0.000388694
0.000416447
0.00044424
0.000471717
0.000498845
0.000525324
0.000551295
0.000576452
0.000600881
0.000624554
0.000647478
0.000669644
0.000691157
0.000711762
0.00073177
0.00075103
0.000769711
0.000787645
0.000805158
0.000821878
0.000838017
0.000853713
0.000868846
0.000883504
0.000897637
0.000911362
0.000924628
0.000937419
0.000949834
0.000961856
0.000973496
0.00098479
0.000995726
0.00100634
0.00101665
0.00102662
0.00103632
0.00104573
0.00105488
0.00106377
0.00107242
0.00108081
0.00108898
0.00109693
0.00110467
0.00111219
0.00111952
0.00112665
0.00113361
0.00114038
0.00114699
0.00115343
0.0011597
0.00116583
0.00117181
0.00117764
0.00118334
0.0011889
0.00119433
0.00119963
0.00120481
0.00120988
0.00121483
0.00121967
0.0012244
0.00122904
0.00123357
0.001238
0.00124234
0.00124659
0.00125075
0.00125482
0.00125881
0.00126272
0.00126656
0.00127031
0.00127399
0.0012776
0.00128114
0.00128462
0.00128802
0.00129136
0.00129464
0.00129786
0.00130102
0.00130412
0.00130717
0.00131016
0.0013131
0.00131599
0.00131882
0.00132161
0.00132435
0.00132704
0.00132969
0.00133229
0.00133485
0.00133737
0.00133985
0.00134228
0.00134468
0.00134704
0.00134936
0.00135165
0.0013539
0.00135611
0.00135829
0.00136044
0.00136256
0.00136464
0.00136669
0.00136871
0.0013707
0.00137267
0.0013746
0.00137651
0.00137839
0.00138024
0.00138207
0.00138387
0.00138564
0.0013874
0.00138912
0.00139083
0.00139251
0.00139417
0.0013958
0.00139742
0.00139901
0.00140059
0.00140214
0.00140367
0.00140519
0.00140668
0.00140815
0.00140961
0.00141105
0.00141247
0.00141387
0.00141525
0.00141662
0.00141797
0.00141931
0.00142063
0.00142193
0.00142322
0.00142449
0.00142575
0.001427
0.00142823
0.00142945
0.00143065
0.00143184
0.00143301
0.00143419
0.00143534
0.00143649
0.00143761
0.00143874
0.00143983
0.00144094
0.001442
0.00144308
0.00144412
0.00144519
0.00144618
0.00144723
0.00144818
0.00144922
0.00145013
0.00145117
0.00145204
0.00145309
0.00145387
0.00145501
0.00145564
0.00145709
0.00237155
0.00234606
0.00213201
0.00185888
0.0016166
0.0013779
0.00118503
0.00101024
0.000866982
0.000740603
0.000637304
0.000546033
0.000474051
0.000412474
0.000363883
0.000328749
0.000304172
0.000289282
0.000283231
0.000284837
0.000292884
0.000306396
0.000324203
0.000345376
0.000369018
0.000394474
0.00042098
0.000448235
0.000475691
0.000503262
0.000530589
0.000557566
0.00058405
0.000610021
0.000635345
0.000660146
0.000684164
0.000707579
0.000730261
0.000752362
0.000773714
0.000794547
0.000814692
0.000834155
0.00085309
0.00087142
0.000889239
0.000906452
0.000923272
0.000939485
0.000955166
0.000970466
0.000985304
0.00099969
0.00101368
0.00102724
0.00104044
0.00105327
0.0010657
0.00107781
0.00108958
0.00110105
0.00111219
0.00112305
0.00113361
0.0011439
0.00115394
0.00116369
0.0011732
0.00118248
0.00119152
0.00120034
0.00120894
0.00121734
0.00122553
0.00123353
0.00124134
0.00124897
0.00125641
0.00126369
0.00127081
0.00127776
0.00128456
0.00129121
0.00129772
0.00130408
0.0013103
0.0013164
0.00132236
0.00132821
0.00133393
0.00133953
0.00134502
0.0013504
0.00135567
0.00136083
0.0013659
0.00137087
0.00137574
0.00138052
0.0013852
0.0013898
0.00139432
0.00139875
0.0014031
0.00140737
0.00141156
0.00141568
0.00141972
0.0014237
0.0014276
0.00143144
0.00143521
0.00143892
0.00144257
0.00144615
0.00144968
0.00145314
0.00145655
0.00145991
0.00146321
0.00146646
0.00146965
0.0014728
0.0014759
0.00147895
0.00148195
0.00148491
0.00148782
0.00149069
0.00149351
0.00149629
0.00149904
0.00150174
0.0015044
0.00150703
0.00150962
0.00151217
0.00151468
0.00151716
0.00151961
0.00152202
0.0015244
0.00152674
0.00152906
0.00153134
0.0015336
0.00153582
0.00153801
0.00154018
0.00154232
0.00154443
0.00154651
0.00154857
0.0015506
0.0015526
0.00155458
0.00155653
0.00155847
0.00156037
0.00156226
0.00156412
0.00156595
0.00156777
0.00156956
0.00157133
0.00157308
0.00157482
0.00157653
0.00157822
0.00157989
0.00158154
0.00158318
0.0015848
0.0015864
0.00158798
0.00158954
0.0015911
0.00159262
0.00159415
0.00159565
0.00159714
0.0015986
0.00160006
0.00160148
0.00160291
0.00160429
0.0016057
0.00160703
0.00160841
0.00160969
0.00161106
0.00161228
0.00161366
0.00161481
0.00161621
0.00161724
0.00161875
0.00161959
0.00162152
0.00236341
0.00238929
0.00228625
0.00209786
0.00190981
0.00170376
0.00152207
0.00134871
0.0011978
0.00105829
0.000937288
0.000826346
0.000731014
0.000644795
0.000570326
0.00050659
0.000451955
0.000408281
0.000375242
0.00035092
0.000335434
0.000327979
0.000327513
0.000333244
0.000344235
0.000359663
0.000378516
0.000400176
0.000423808
0.000448972
0.000475104
0.000501869
0.000528891
0.00055603
0.000582987
0.000609791
0.000636158
0.000662138
0.00068756
0.000712514
0.00073685
0.00076066
0.000783905
0.000806493
0.000828535
0.000849965
0.000870876
0.000891165
0.000910987
0.00093025
0.000948941
0.000967156
0.000984892
0.00100213
0.00101893
0.00103524
0.0010512
0.00106668
0.00108169
0.0010964
0.0011107
0.00112465
0.00113822
0.00115148
0.00116437
0.00117698
0.00118927
0.00120122
0.00121291
0.00122432
0.00123545
0.00124632
0.00125694
0.00126731
0.00127744
0.00128734
0.00129702
0.00130647
0.00131572
0.00132476
0.00133361
0.00134227
0.00135074
0.00135903
0.00136714
0.00137509
0.00138287
0.00139049
0.00139796
0.00140527
0.00141244
0.00141947
0.00142636
0.00143311
0.00143973
0.00144623
0.0014526
0.00145886
0.00146499
0.00147102
0.00147693
0.00148273
0.00148843
0.00149403
0.00149953
0.00150493
0.00151023
0.00151545
0.00152057
0.00152561
0.00153056
0.00153542
0.00154021
0.00154492
0.00154955
0.0015541
0.00155858
0.00156299
0.00156733
0.0015716
0.0015758
0.00157994
0.00158401
0.00158802
0.00159197
0.00159586
0.00159969
0.00160347
0.00160719
0.00161085
0.00161446
0.00161802
0.00162153
0.00162498
0.00162839
0.00163175
0.00163507
0.00163833
0.00164155
0.00164473
0.00164787
0.00165096
0.00165401
0.00165702
0.00165999
0.00166292
0.00166581
0.00166867
0.00167149
0.00167427
0.00167702
0.00167973
0.00168241
0.00168505
0.00168766
0.00169024
0.00169279
0.0016953
0.00169778
0.00170024
0.00170267
0.00170506
0.00170743
0.00170977
0.00171208
0.00171436
0.00171662
0.00171885
0.00172105
0.00172323
0.00172539
0.00172752
0.00172963
0.00173172
0.00173378
0.00173582
0.00173783
0.00173984
0.00174181
0.00174378
0.00174571
0.00174763
0.00174952
0.00175139
0.00175324
0.00175507
0.00175687
0.00175867
0.00176041
0.00176218
0.00176384
0.00176561
0.00176718
0.00176896
0.00177044
0.00177226
0.00177357
0.00177552
0.00177661
0.0017791
0.00235738
0.0023932
0.00236245
0.00224904
0.00211988
0.00196195
0.00180788
0.00165287
0.00151022
0.00137353
0.00124949
0.00113246
0.00102597
0.00092734
0.000837315
0.000755585
0.000679773
0.000614687
0.000555719
0.000504228
0.000462988
0.000429827
0.000404397
0.000386862
0.000376688
0.0003731
0.000375425
0.000383028
0.000395048
0.000410825
0.000429606
0.000450828
0.000473834
0.000498257
0.000523581
0.00054962
0.00057599
0.000602567
0.000629093
0.000655514
0.000681677
0.000707515
0.000733019
0.000758045
0.000782641
0.000806716
0.000830335
0.000853402
0.000875994
0.000898082
0.000919631
0.000940673
0.000961235
0.000981287
0.00100088
0.00101997
0.00103864
0.00105686
0.00107459
0.00109192
0.00110884
0.00112536
0.00114148
0.00115724
0.00117259
0.00118766
0.00120232
0.00121661
0.00123062
0.00124431
0.00125768
0.00127077
0.00128354
0.00129605
0.00130827
0.00132024
0.00133195
0.00134339
0.00135459
0.00136557
0.00137631
0.00138683
0.00139713
0.00140722
0.00141711
0.0014268
0.00143629
0.00144561
0.00145473
0.00146367
0.00147244
0.00148105
0.00148949
0.00149778
0.00150591
0.00151389
0.00152171
0.00152941
0.00153695
0.00154437
0.00155165
0.00155881
0.00156583
0.00157274
0.00157952
0.00158619
0.00159275
0.00159919
0.00160553
0.00161176
0.00161789
0.00162392
0.00162985
0.00163569
0.00164143
0.00164708
0.00165264
0.00165812
0.00166351
0.00166882
0.00167404
0.00167919
0.00168426
0.00168925
0.00169417
0.00169901
0.00170379
0.00170849
0.00171313
0.0017177
0.0017222
0.00172664
0.00173102
0.00173534
0.0017396
0.0017438
0.00174794
0.00175202
0.00175606
0.00176003
0.00176395
0.00176782
0.00177165
0.00177541
0.00177914
0.00178281
0.00178643
0.00179001
0.00179355
0.00179704
0.00180048
0.00180389
0.00180725
0.00181057
0.00181385
0.00181709
0.00182028
0.00182345
0.00182657
0.00182965
0.0018327
0.00183572
0.00183869
0.00184164
0.00184454
0.00184742
0.00185026
0.00185307
0.00185584
0.00185859
0.0018613
0.00186399
0.00186664
0.00186928
0.00187187
0.00187445
0.00187698
0.00187951
0.00188199
0.00188447
0.0018869
0.00188933
0.00189171
0.00189407
0.00189639
0.00189871
0.00190097
0.00190326
0.00190544
0.00190769
0.00190978
0.00191201
0.001914
0.00191625
0.00191811
0.00192041
0.00192207
0.00192452
0.00192591
0.00192905
0.00235431
0.00238301
0.00238924
0.00233284
0.0022539
0.00214683
0.00202867
0.00190209
0.0017788
0.00165615
0.0015402
0.00142814
0.00132241
0.00122215
0.00112684
0.00103786
0.000953418
0.000875134
0.000802315
0.000733596
0.000673436
0.000617445
0.000568182
0.000527037
0.000492843
0.00046519
0.000444705
0.000430897
0.00042325
0.000421343
0.000424596
0.000432457
0.000444209
0.00045934
0.000477185
0.000497314
0.000519191
0.00054247
0.000566751
0.000591769
0.000617287
0.000643063
0.000669014
0.000694924
0.000720751
0.00074635
0.000771717
0.000796742
0.000821423
0.000845728
0.000869621
0.000893075
0.000916108
0.000938681
0.000960824
0.000982503
0.00100374
0.00102456
0.00104489
0.00106482
0.0010843
0.00110339
0.00112205
0.00114033
0.00115819
0.00117571
0.00119284
0.00120957
0.00122596
0.00124201
0.00125772
0.00127311
0.00128816
0.00130291
0.00131734
0.00133152
0.00134537
0.0013589
0.00137221
0.00138524
0.00139801
0.00141053
0.0014228
0.00143483
0.00144663
0.00145821
0.00146956
0.0014807
0.00149162
0.00150234
0.00151286
0.00152319
0.00153333
0.00154329
0.00155306
0.00156267
0.00157209
0.00158136
0.00159046
0.00159941
0.0016082
0.00161684
0.00162533
0.00163368
0.00164189
0.00164997
0.00165791
0.00166572
0.0016734
0.00168096
0.0016884
0.00169572
0.00170293
0.00171002
0.001717
0.00172388
0.00173065
0.00173731
0.00174388
0.00175034
0.00175671
0.00176299
0.00176917
0.00177526
0.00178127
0.00178718
0.00179302
0.00179877
0.00180444
0.00181002
0.00181554
0.00182097
0.00182633
0.00183162
0.00183684
0.00184198
0.00184706
0.00185207
0.00185701
0.00186189
0.0018667
0.00187145
0.00187614
0.00188077
0.00188534
0.00188986
0.00189431
0.00189871
0.00190306