/*--------------------------------*- C++ -*----------------------------------*\
  =========                 |
  \\      /  F ield         | OpenFOAM: The Open Source CFD Toolbox
   \\    /   O peration     | Website:  https://openfoam.org
    \\  /    A nd           | Version:  12
     \\/     M anipulation  |
\*---------------------------------------------------------------------------*/
FoamFile
{
    format      ascii;
    class       volScalarField;
    location    "1000";
    object      p;
}
// * * * * * * * * * * * * * * * * * * * * * * * * * * * * * * * * * * * * * //

dimensions      [0 2 -2 0 0 0 0];

internalField   nonuniform List<scalar> 
20000
(
0.261447
0.140179
0.113872
0.111995
0.109636
0.107617
0.106261
0.105091
0.104039
0.103009
0.102017
0.101074
0.100166
0.0993026
0.0984776
0.0976799
0.0969013
0.0961265
0.0953663
0.0946285
0.0938963
0.093171
0.0924577
0.0917533
0.0910591
0.090367
0.0896841
0.0890038
0.0883319
0.0876609
0.0869986
0.0863377
0.0856822
0.0850298
0.0843808
0.0837356
0.0830957
0.0824576
0.081823
0.0811914
0.0805621
0.0799375
0.0793139
0.078695
0.0780767
0.0774627
0.0768499
0.0762414
0.0756336
0.07503
0.0744276
0.0738283
0.0732308
0.0726361
0.0720433
0.0714532
0.0708649
0.0702786
0.0696951
0.0691132
0.0685337
0.067956
0.0673804
0.0668068
0.0662347
0.0656652
0.0650971
0.0645315
0.0639671
0.0634049
0.0628442
0.0622854
0.0617282
0.061173
0.0606194
0.0600675
0.0595172
0.0589685
0.0584215
0.0578758
0.057332
0.0567895
0.0562488
0.0557094
0.0551717
0.0546352
0.0541003
0.0535668
0.0530347
0.052504
0.0519747
0.0514468
0.0509201
0.0503949
0.0498709
0.0493482
0.0488268
0.0483065
0.0477877
0.04727
0.0467536
0.0462383
0.0457244
0.0452115
0.0446998
0.0441893
0.0436799
0.0431717
0.0426645
0.0421585
0.0416535
0.0411498
0.040647
0.0401454
0.0396446
0.0391451
0.0386465
0.038149
0.0376524
0.0371569
0.0366622
0.0361687
0.035676
0.0351844
0.0346936
0.0342039
0.033715
0.033227
0.03274
0.0322538
0.0317686
0.0312841
0.0308006
0.0303179
0.0298362
0.0293552
0.0288751
0.0283957
0.0279174
0.0274398
0.026963
0.026487
0.0260119
0.0255376
0.0250641
0.0245912
0.0241193
0.0236482
0.0231778
0.022708
0.0222391
0.021771
0.0213036
0.0208368
0.0203709
0.0199057
0.0194413
0.0189774
0.0185144
0.0180521
0.0175905
0.0171296
0.0166694
0.0162099
0.0157512
0.015293
0.0148356
0.0143789
0.0139228
0.0134674
0.0130127
0.0125584
0.0121049
0.0116521
0.0112001
0.0107484
0.0102977
0.00984755
0.00939868
0.00894956
0.0085022
0.00805448
0.00760912
0.00716232
0.00671896
0.00627324
0.00583266
0.00538758
0.00495019
0.00450543
0.00407238
0.00362755
0.00319975
0.00275468
0.0023335
0.0018883
0.00147578
0.00102333
0.00063492
0.000115067
0.225032
0.138184
0.114542
0.11245
0.109901
0.107797
0.106401
0.105205
0.104134
0.103089
0.102085
0.101134
0.100218
0.0993491
0.0985191
0.0977172
0.0969349
0.0961571
0.0953945
0.0946544
0.0939202
0.0931931
0.0924784
0.0917725
0.0910771
0.0903839
0.0897001
0.0890188
0.0883461
0.0876744
0.0870114
0.0863499
0.0856938
0.0850408
0.0843914
0.0837458
0.0831054
0.0824669
0.0818319
0.0812
0.0805704
0.0799455
0.0793216
0.0787024
0.0780839
0.0774696
0.0768566
0.0762479
0.0756399
0.0750362
0.0744335
0.0738341
0.0732364
0.0726415
0.0720486
0.0714583
0.0708699
0.0702835
0.0696998
0.0691178
0.0685382
0.0679604
0.0673847
0.066811
0.0662388
0.0656692
0.065101
0.0645353
0.0639708
0.0634086
0.0628478
0.0622889
0.0617317
0.0611764
0.0606226
0.0600707
0.0595203
0.0589716
0.0584245
0.0578788
0.0573349
0.0567924
0.0562516
0.0557122
0.0551744
0.0546379
0.0541029
0.0535694
0.0530372
0.0525065
0.0519771
0.0514492
0.0509225
0.0503972
0.0498732
0.0493504
0.048829
0.0483087
0.0477898
0.047272
0.0467557
0.0462403
0.0457264
0.0452134
0.0447018
0.0441912
0.0436818
0.0431735
0.0426663
0.0421603
0.0416553
0.0411515
0.0406487
0.0401471
0.0396463
0.0391468
0.0386481
0.0381506
0.0376539
0.0371584
0.0366638
0.0361702
0.0356775
0.0351858
0.034695
0.0342053
0.0337164
0.0332284
0.0327413
0.0322552
0.0317699
0.0312854
0.0308019
0.0303192
0.0298374
0.0293564
0.0288763
0.0283969
0.0279185
0.0274409
0.0269642
0.0264882
0.026013
0.0255387
0.0250652
0.0245923
0.0241203
0.0236492
0.0231789
0.022709
0.0222401
0.021772
0.0213046
0.0208378
0.0203718
0.0199067
0.0194422
0.0189783
0.0185153
0.018053
0.0175914
0.0171304
0.0166703
0.0162108
0.015752
0.0152939
0.0148365
0.0143797
0.0139236
0.0134682
0.0130135
0.0125592
0.0121057
0.0116528
0.0112009
0.0107492
0.0102985
0.0098483
0.00939941
0.0089503
0.00850293
0.0080552
0.00760984
0.00716303
0.00671967
0.00627394
0.00583335
0.00538827
0.00495089
0.00450611
0.00407307
0.00362825
0.00320043
0.0027554
0.00233419
0.00188903
0.00147654
0.00102409
0.00063579
0.000115803
0.209538
0.140272
0.116121
0.113161
0.110335
0.108116
0.106659
0.105418
0.104312
0.10324
0.102216
0.101249
0.100318
0.0994413
0.0986019
0.097792
0.0970026
0.0962189
0.0954513
0.0947068
0.0939684
0.0932379
0.0925202
0.0918115
0.0911135
0.0904181
0.0897322
0.0890491
0.0883747
0.0877014
0.087037
0.0863742
0.0857169
0.0850628
0.0844123
0.0837659
0.0831246
0.0824852
0.0818495
0.0812169
0.0805866
0.0799611
0.0793366
0.0787169
0.0780978
0.0774831
0.0768696
0.0762605
0.0756521
0.0750479
0.0744449
0.0738451
0.0732471
0.0726519
0.0720587
0.0714681
0.0708795
0.0702928
0.0697088
0.0691266
0.0685468
0.0679687
0.0673928
0.0668189
0.0662465
0.0656767
0.0651084
0.0645425
0.0639778
0.0634154
0.0628545
0.0622955
0.0617381
0.0611826
0.0606288
0.0600767
0.0595262
0.0589773
0.0584301
0.0578843
0.0573403
0.0567977
0.0562568
0.0557172
0.0551793
0.0546428
0.0541077
0.0535741
0.0530418
0.052511
0.0519815
0.0514535
0.0509268
0.0504014
0.0498773
0.0493545
0.048833
0.0483126
0.0477937
0.0472758
0.0467594
0.046244
0.04573
0.045217
0.0447053
0.0441946
0.0436851
0.0431769
0.0426696
0.0421636
0.0416585
0.0411547
0.0406518
0.0401501
0.0396493
0.0391497
0.038651
0.0381534
0.0376568
0.0371612
0.0366665
0.0361729
0.0356802
0.0351885
0.0346976
0.0342078
0.0337189
0.0332309
0.0327438
0.0322576
0.0317723
0.0312878
0.0308042
0.0303215
0.0298397
0.0293586
0.0288785
0.0283991
0.0279207
0.027443
0.0269663
0.0264902
0.0260151
0.0255407
0.0250672
0.0245943
0.0241223
0.0236511
0.0231807
0.0227109
0.0222419
0.0217738
0.0213064
0.0208396
0.0203736
0.0199084
0.0194439
0.01898
0.0185169
0.0180547
0.017593
0.0171321
0.0166718
0.0162124
0.0157536
0.0152954
0.014838
0.0143812
0.0139251
0.0134696
0.0130149
0.0125607
0.0121071
0.0116542
0.0112023
0.0107505
0.0102999
0.00984964
0.00940075
0.00895162
0.00850425
0.00805649
0.00761113
0.00716431
0.00672096
0.00627519
0.00583461
0.00538951
0.00495214
0.00450734
0.00407431
0.00362949
0.00320167
0.00275666
0.00233545
0.0018903
0.00147792
0.00102535
0.000637447
0.000116182
0.204023
0.141376
0.118039
0.113873
0.110797
0.108468
0.106947
0.10566
0.10452
0.103421
0.102379
0.101396
0.100451
0.099564
0.0987137
0.0978936
0.0970953
0.0963045
0.0955306
0.0947802
0.0940363
0.0933013
0.0925794
0.0918672
0.0911656
0.0904669
0.0897783
0.0890926
0.0884158
0.0877404
0.087074
0.0864093
0.0857504
0.0850947
0.0844427
0.083795
0.0831525
0.0825118
0.0818751
0.0812413
0.0806101
0.0799837
0.0793584
0.0787378
0.0781181
0.0775026
0.0768885
0.0762787
0.0756697
0.075065
0.0744614
0.0738611
0.0732626
0.072667
0.0720733
0.0714823
0.0708932
0.0703061
0.0697218
0.0691392
0.0685591
0.0679807
0.0674045
0.0668303
0.0662576
0.0656876
0.0651189
0.0645528
0.0639879
0.0634253
0.0628641
0.0623048
0.0617472
0.0611916
0.0606375
0.0600853
0.0595346
0.0589856
0.0584382
0.0578922
0.057348
0.0568053
0.0562642
0.0557245
0.0551865
0.0546498
0.0541146
0.0535808
0.0530484
0.0525175
0.0519879
0.0514598
0.0509329
0.0504074
0.0498832
0.0493603
0.0488387
0.0483182
0.0477992
0.0472813
0.0467647
0.0462493
0.0457351
0.0452221
0.0447103
0.0441995
0.04369
0.0431816
0.0426742
0.0421682
0.041663
0.0411592
0.0406562
0.0401544
0.0396536
0.0391539
0.0386551
0.0381575
0.0376608
0.0371651
0.0366704
0.0361767
0.035684
0.0351922
0.0347013
0.0342115
0.0337225
0.0332344
0.0327473
0.032261
0.0317757
0.0312911
0.0308075
0.0303247
0.0298429
0.0293618
0.0288816
0.0284022
0.0279237
0.0274461
0.0269693
0.0264932
0.026018
0.0255436
0.02507
0.0245971
0.024125
0.0236539
0.0231834
0.0227136
0.0222446
0.0217764
0.021309
0.0208421
0.0203761
0.0199109
0.0194464
0.0189824
0.0185193
0.018057
0.0175954
0.0171344
0.0166741
0.0162146
0.0157558
0.0152976
0.0148401
0.0143833
0.0139273
0.0134718
0.013017
0.0125627
0.0121092
0.0116563
0.0112042
0.0107525
0.0103018
0.00985157
0.00940264
0.00895351
0.00850615
0.00805834
0.00761296
0.00716612
0.00672279
0.00627697
0.0058364
0.00539126
0.00495393
0.00450908
0.00407605
0.00363123
0.00320342
0.0027584
0.00233722
0.00189204
0.00147982
0.00102712
0.000639596
0.00011604
0.19804
0.140853
0.11982
0.11477
0.111234
0.108774
0.107187
0.105863
0.104704
0.103592
0.102541
0.101546
0.10059
0.0996946
0.0988343
0.0980047
0.0971982
0.0964006
0.0956205
0.0948642
0.0941145
0.0933749
0.0926488
0.0919328
0.0912271
0.0905249
0.0898331
0.0891446
0.0884651
0.0877872
0.0871184
0.0864515
0.0857907
0.0851331
0.0844793
0.0838302
0.0831862
0.0825441
0.081906
0.081271
0.0806387
0.0800111
0.0793848
0.0787634
0.0781426
0.0775263
0.0769114
0.0763008
0.0756911
0.0750857
0.0744814
0.0738805
0.0732814
0.0726853
0.0720911
0.0714995
0.0709099
0.0703224
0.0697377
0.0691546
0.0685741
0.0679953
0.0674187
0.0668441
0.0662711
0.0657007
0.0651318
0.0645653
0.0640001
0.0634372
0.0628757
0.0623162
0.0617584
0.0612025
0.0606482
0.0600957
0.0595448
0.0589956
0.058448
0.0579017
0.0573574
0.0568145
0.0562733
0.0557334
0.0551951
0.0546583
0.0541229
0.053589
0.0530564
0.0525254
0.0519956
0.0514674
0.0509404
0.0504147
0.0498904
0.0493674
0.0488456
0.048325
0.0478059
0.0472879
0.0467712
0.0462556
0.0457414
0.0452282
0.0447163
0.0442055
0.0436958
0.0431874
0.0426799
0.0421738
0.0416685
0.0411646
0.0406615
0.0401597
0.0396587
0.039159
0.0386602
0.0381625
0.0376657
0.0371699
0.0366751
0.0361814
0.0356886
0.0351967
0.0347058
0.0342159
0.0337268
0.0332387
0.0327515
0.0322652
0.0317798
0.0312952
0.0308115
0.0303287
0.0298468
0.0293656
0.0288854
0.0284059
0.0279274
0.0274497
0.0269729
0.0264967
0.0260215
0.0255471
0.0250734
0.0246005
0.0241284
0.0236571
0.0231867
0.0227168
0.0222477
0.0217796
0.0213121
0.0208452
0.0203791
0.0199139
0.0194493
0.0189854
0.0185222
0.0180599
0.0175982
0.0171371
0.0166768
0.0162174
0.0157585
0.0153003
0.0148428
0.014386
0.0139299
0.0134743
0.0130195
0.0125652
0.0121117
0.0116587
0.0112066
0.0107549
0.0103042
0.00985389
0.00940494
0.0089558
0.00850843
0.00806057
0.00761518
0.00716832
0.006725
0.00627913
0.00583854
0.00539338
0.00495606
0.00451118
0.00407813
0.0036333
0.00320549
0.00276046
0.00233931
0.00189407
0.00148202
0.0010292
0.000641832
0.000115342
0.191563
0.140216
0.120983
0.115813
0.111728
0.109068
0.107395
0.106025
0.104847
0.103729
0.102678
0.101679
0.10072
0.0998188
0.098951
0.098115
0.0973028
0.0964992
0.0957143
0.0949529
0.0941979
0.0934541
0.092724
0.0920045
0.0912945
0.0905887
0.0898939
0.0892024
0.0885203
0.0878396
0.0871684
0.0864993
0.0858365
0.0851768
0.0845211
0.0838703
0.0832246
0.082581
0.0819416
0.0813051
0.0806715
0.0800428
0.0794153
0.0787928
0.078171
0.0775537
0.0769379
0.0763264
0.0757159
0.0751097
0.0745046
0.073903
0.0733033
0.0727065
0.0721116
0.0715195
0.0709294
0.0703413
0.069756
0.0691725
0.0685915
0.0680122
0.0674352
0.0668602
0.0662868
0.065716
0.0651467
0.0645799
0.0640144
0.0634511
0.0628893
0.0623295
0.0617714
0.0612152
0.0606606
0.0601078
0.0595567
0.0590072
0.0584593
0.0579129
0.0573683
0.0568252
0.0562837
0.0557436
0.0552052
0.0546681
0.0541326
0.0535985
0.0530657
0.0525345
0.0520046
0.0514762
0.050949
0.0504232
0.0498988
0.0493756
0.0488537
0.048333
0.0478137
0.0472955
0.0467787
0.046263
0.0457487
0.0452354
0.0447233
0.0442124
0.0437027
0.0431941
0.0426865
0.0421802
0.0416749
0.0411709
0.0406677
0.0401658
0.0396647
0.0391649
0.038666
0.0381682
0.0376713
0.0371755
0.0366806
0.0361868
0.0356939
0.035202
0.034711
0.034221
0.0337319
0.0332437
0.0327564
0.03227
0.0317846
0.0312999
0.0308161
0.0303333
0.0298513
0.0293701
0.0288898
0.0284103
0.0279317
0.0274539
0.026977
0.0265008
0.0260256
0.0255511
0.0250774
0.0246044
0.0241322
0.023661
0.0231905
0.0227205
0.0222514
0.0217832
0.0213157
0.0208487
0.0203826
0.0199173
0.0194528
0.0189887
0.0185255
0.0180632
0.0176015
0.0171404
0.01668
0.0162205
0.0157617
0.0153034
0.0148458
0.014389
0.0139329
0.0134773
0.0130224
0.0125681
0.0121146
0.0116615
0.0112094
0.0107577
0.010307
0.00985659
0.00940759
0.00895845
0.0085111
0.00806316
0.00761773
0.00717087
0.00672757
0.00628162
0.005841
0.00539582
0.00495852
0.00451359
0.0040805
0.00363568
0.00320785
0.0027628
0.00234166
0.00189631
0.00148448
0.00103153
0.000644058
0.000114201
0.185572
0.140086
0.121704
0.116486
0.112272
0.109435
0.107618
0.106178
0.104968
0.103832
0.102778
0.101778
0.100822
0.0999237
0.0990537
0.0982161
0.097402
0.0965944
0.0958062
0.0950414
0.0942822
0.0935347
0.0928014
0.0920789
0.0913649
0.0906558
0.0899585
0.0892642
0.0885797
0.0878962
0.0872224
0.0865513
0.0858865
0.0852247
0.0845671
0.0839145
0.0832671
0.0826219
0.081981
0.081343
0.080708
0.0800781
0.0794493
0.0788257
0.0782027
0.0775843
0.0769676
0.0763552
0.0757437
0.0751368
0.0745308
0.0739284
0.0733279
0.0727305
0.0721349
0.0715422
0.0709513
0.0703627
0.0697769
0.0691928
0.0686112
0.0680315
0.067454
0.0668785
0.0663046
0.0657334
0.0651637
0.0645965
0.0640305
0.0634669
0.0629047
0.0623446
0.0617861
0.0612296
0.0606747
0.0601217
0.0595702
0.0590204
0.0584723
0.0579256
0.0573808
0.0568373
0.0562957
0.0557553
0.0552167
0.0546794
0.0541436
0.0536093
0.0530763
0.052545
0.0520148
0.0514862
0.0509589
0.0504329
0.0499083
0.0493849
0.0488629
0.048342
0.0478226
0.0473042
0.0467873
0.0462715
0.045757
0.0452435
0.0447314
0.0442203
0.0437104
0.0432017
0.0426941
0.0421877
0.0416822
0.0411781
0.0406748
0.0401728
0.0396716
0.0391717
0.0386727
0.0381748
0.0376778
0.0371819
0.0366869
0.036193
0.0357
0.035208
0.0347169
0.0342269
0.0337377
0.0332494
0.032762
0.0322756
0.03179
0.0313053
0.0308215
0.0303385
0.0298565
0.0293752
0.0288948
0.0284153
0.0279367
0.0274588
0.0269818
0.0265056
0.0260302
0.0255557
0.0250819
0.0246089
0.0241367
0.0236653
0.0231948
0.0227248
0.0222556
0.0217873
0.0213198
0.0208528
0.0203866
0.0199213
0.0194567
0.0189926
0.0185293
0.018067
0.0176053
0.0171441
0.0166836
0.0162241
0.0157653
0.0153069
0.0148493
0.0143924
0.0139364
0.0134807
0.0130257
0.0125714
0.0121179
0.0116648
0.0112126
0.0107609
0.0103102
0.00985969
0.00941063
0.0089615
0.00851414
0.00806613
0.00762065
0.00717378
0.00673049
0.00628448
0.00584381
0.00539861
0.00496131
0.00451634
0.0040832
0.00363837
0.00321052
0.00276542
0.0023443
0.00189878
0.0014872
0.00103408
0.000646275
0.000112693
0.180143
0.139813
0.122531
0.116934
0.112666
0.109881
0.107895
0.10635
0.105094
0.10393
0.102864
0.101853
0.100895
0.0999999
0.0991305
0.0982961
0.0974852
0.0966775
0.0958894
0.0951239
0.0943622
0.0936123
0.0928768
0.0921525
0.0914353
0.0907236
0.0900241
0.0893276
0.088641
0.0879549
0.0872789
0.086606
0.0859393
0.0852755
0.084616
0.0839617
0.0833126
0.0826658
0.0820236
0.081384
0.0807476
0.0801164
0.0794864
0.0788616
0.0782374
0.0776179
0.0770002
0.0763868
0.0757744
0.0751666
0.0745597
0.0739564
0.0733552
0.072757
0.0721607
0.0715673
0.0709757
0.0703864
0.0698
0.0692153
0.0686332
0.0680529
0.0674749
0.0668988
0.0663245
0.0657528
0.0651826
0.064615
0.0640486
0.0634846
0.062922
0.0623615
0.0618026
0.0612458
0.0606905
0.0601371
0.0595854
0.0590353
0.0584868
0.0579398
0.0573947
0.056851
0.0563091
0.0557685
0.0552296
0.054692
0.0541561
0.0536215
0.0530883
0.0525567
0.0520264
0.0514976
0.05097
0.0504439
0.049919
0.0493955
0.0488733
0.0483522
0.0478326
0.0473141
0.046797
0.046281
0.0457663
0.0452527
0.0447404
0.0442292
0.0437192
0.0432104
0.0427026
0.042196
0.0416905
0.0411862
0.0406828
0.0401806
0.0396794
0.0391794
0.0386802
0.0381822
0.0376851
0.0371891
0.036694
0.0362
0.0357069
0.0352148
0.0347236
0.0342335
0.0337442
0.0332558
0.0327684
0.0322818
0.0317962
0.0313114
0.0308275
0.0303444
0.0298624
0.029381
0.0289005
0.0284209
0.0279422
0.0274643
0.0269872
0.0265109
0.0260355
0.0255609
0.0250871
0.024614
0.0241417
0.0236703
0.0231997
0.0227296
0.0222604
0.021792
0.0213245
0.0208574
0.0203911
0.0199258
0.0194612
0.018997
0.0185336
0.0180713
0.0176096
0.0171483
0.0166877
0.0162282
0.0157694
0.0153109
0.0148532
0.0143964
0.0139403
0.0134845
0.0130295
0.0125752
0.0121216
0.0116684
0.0112162
0.0107645
0.0103138
0.0098632
0.00941406
0.00896494
0.00851759
0.0080695
0.00762394
0.00717708
0.0067338
0.00628771
0.00584698
0.00540177
0.00496445
0.00451944
0.00408621
0.00364138
0.0032135
0.00276835
0.00234723
0.00190146
0.00149019
0.00103684
0.000648488
0.000110857
0.175051
0.139448
0.123238
0.117479
0.112963
0.110189
0.108213
0.106561
0.105236
0.104037
0.102956
0.101928
0.100961
0.100062
0.0991863
0.0983522
0.0975449
0.0967392
0.0959548
0.0951927
0.0944316
0.0936818
0.0929462
0.0922216
0.0915024
0.090789
0.090088
0.08939
0.0887019
0.0880136
0.0873358
0.0866614
0.0859932
0.0853276
0.0846664
0.0840106
0.08336
0.0827118
0.0820683
0.0814271
0.0807895
0.0801571
0.0795257
0.0788999
0.0782745
0.0776539
0.0770352
0.0764208
0.0758075
0.0751987
0.0745908
0.0739867
0.0733847
0.0727857
0.0721887
0.0715945
0.0710023
0.0704123
0.0698252
0.0692399
0.0686572
0.0680763
0.0674977
0.0669211
0.0663463
0.0657741
0.0652035
0.0646353
0.0640685
0.0635041
0.062941
0.06238
0.0618208
0.0612637
0.060708
0.0601543
0.0596021
0.0590517
0.0585029
0.0579556
0.0574102
0.0568662
0.056324
0.0557831
0.0552439
0.0547061
0.0541698
0.053635
0.0531016
0.0525697
0.0520392
0.0515101
0.0509823
0.050456
0.0499309
0.0494072
0.0488848
0.0483635
0.0478437
0.047325
0.0468078
0.0462916
0.0457768
0.045263
0.0447506
0.0442392
0.043729
0.04322
0.042712
0.0422054
0.0416997
0.0411952
0.0406917
0.0401894
0.039688
0.0391879
0.0386886
0.0381905
0.0376933
0.0371972
0.036702
0.0362079
0.0357146
0.0352225
0.0347312
0.0342409
0.0337515
0.033263
0.0327755
0.0322888
0.0318031
0.0313182
0.0308342
0.0303511
0.0298689
0.0293875
0.0289069
0.0284272
0.0279485
0.0274704
0.0269933
0.0265169
0.0260414
0.0255667
0.0250929
0.0246197
0.0241473
0.0236758
0.0232052
0.0227351
0.0222658
0.0217973
0.0213298
0.0208626
0.0203962
0.0199308
0.0194662
0.019002
0.0185385
0.0180761
0.0176144
0.017153
0.0166924
0.0162328
0.015774
0.0153155
0.0148576
0.0144008
0.0139447
0.0134888
0.0130337
0.0125794
0.0121258
0.0116726
0.0112202
0.0107685
0.0103178
0.00986715
0.00941793
0.00896881
0.00852145
0.00807327
0.00762764
0.00718079
0.0067375
0.00629133
0.00585052
0.0054053
0.00496796
0.0045229
0.00408957
0.00364474
0.00321681
0.00277158
0.00235045
0.00190437
0.00149343
0.0010398
0.0006507
0.00010873
0.17022
0.139026
0.123802
0.117976
0.113356
0.110422
0.108432
0.106782
0.105414
0.104161
0.103055
0.102008
0.101032
0.100126
0.0992396
0.098401
0.0975918
0.0967833
0.0960009
0.0952422
0.0944833
0.0937359
0.0930031
0.0922809
0.0915617
0.0908481
0.090147
0.0894485
0.0887597
0.08807
0.0873911
0.0867156
0.0860464
0.0853793
0.0847167
0.0840597
0.0834079
0.0827584
0.0821139
0.0814712
0.0808326
0.0801992
0.0795664
0.0789397
0.0783131
0.0776915
0.0770719
0.0764566
0.0758423
0.0752327
0.0746238
0.0740189
0.0734161
0.0728164
0.0722185
0.0716237
0.0710307
0.07044
0.0698523
0.0692664
0.0686831
0.0681015
0.0675224
0.0669452
0.0663698
0.0657972
0.065226
0.0646574
0.0640901
0.0635252
0.0629617
0.0624003
0.0618406
0.0612831
0.060727
0.0601729
0.0596204
0.0590696
0.0585205
0.0579728
0.0574271
0.0568827
0.0563402
0.055799
0.0552596
0.0547215
0.054185
0.0536499
0.0531161
0.052584
0.0520532
0.051524
0.0509959
0.0504694
0.0499441
0.0494201
0.0488975
0.048376
0.047856
0.0473371
0.0468197
0.0463033
0.0457883
0.0452743
0.0447617
0.0442502
0.0437398
0.0432306
0.0427225
0.0422157
0.0417098
0.0412053
0.0407016
0.0401992
0.0396976
0.0391974
0.0386979
0.0381997
0.0377023
0.0372061
0.0367108
0.0362165
0.0357232
0.0352309
0.0347395
0.0342491
0.0337596
0.033271
0.0327833
0.0322966
0.0318108
0.0313258
0.0308417
0.0303585
0.0298762
0.0293947
0.028914
0.0284342
0.0279554
0.0274772
0.027
0.0265236
0.026048
0.0255732
0.0250993
0.024626
0.0241536
0.023682
0.0232113
0.0227411
0.0222717
0.0218032
0.0213356
0.0208684
0.0204019
0.0199364
0.0194718
0.0190075
0.0185439
0.0180814
0.0176198
0.0171583
0.0166975
0.0162379
0.0157792
0.0153205
0.0148625
0.0144057
0.0139496
0.0134937
0.0130384
0.0125841
0.0121305
0.0116772
0.0112247
0.010773
0.0103223
0.00987156
0.00942222
0.00897312
0.00852577
0.00807749
0.00763176
0.0071849
0.00674162
0.00629538
0.00585445
0.00540922
0.00497185
0.00452675
0.00409329
0.00364844
0.00322045
0.00277513
0.00235397
0.00190753
0.00149692
0.00104294
0.000652927
0.000106354
0.165647
0.138513
0.124243
0.118404
0.113727
0.110728
0.108604
0.106962
0.105561
0.1043
0.103171
0.102097
0.101107
0.100195
0.099297
0.0984533
0.0976401
0.0968251
0.0960407
0.0952814
0.0945211
0.0937743
0.0930439
0.0923251
0.0916074
0.0908957
0.0901965
0.0894994
0.0888114
0.0881212
0.0874422
0.0867664
0.086097
0.0854287
0.0847651
0.0841075
0.0834549
0.0828044
0.0821591
0.0815151
0.0808756
0.0802415
0.0796077
0.0789801
0.0783525
0.07773
0.0771096
0.0764935
0.0758783
0.0752679
0.0746581
0.0740524
0.0734489
0.0728485
0.0722498
0.0716544
0.0710606
0.0704692
0.0698809
0.0692944
0.0687105
0.0681283
0.0675487
0.0669709
0.0663949
0.0658218
0.0652501
0.064681
0.0641132
0.0635479
0.0629839
0.062422
0.0618619
0.061304
0.0607475
0.060193
0.0596401
0.059089
0.0585395
0.0579914
0.0574453
0.0569007
0.0563578
0.0558163
0.0552766
0.0547381
0.0542014
0.053666
0.0531319
0.0525996
0.0520685
0.051539
0.0510107
0.0504839
0.0499584
0.0494342
0.0489113
0.0483896
0.0478694
0.0473503
0.0468326
0.0463161
0.0458009
0.0452867
0.0447739
0.0442622
0.0437517
0.0432423
0.042734
0.042227
0.041721
0.0412162
0.0407124
0.0402098
0.0397081
0.0392077
0.0387081
0.0382098
0.0377123
0.0372159
0.0367204
0.0362261
0.0357326
0.0352402
0.0347486
0.0342581
0.0337685
0.0332798
0.032792
0.0323052
0.0318193
0.0313341
0.0308499
0.0303666
0.0298843
0.0294026
0.0289218
0.028442
0.0279631
0.0274848
0.0270074
0.0265309
0.0260553
0.0255804
0.0251063
0.0246331
0.0241605
0.0236888
0.023218
0.0227478
0.0222783
0.0218097
0.0213421
0.0208748
0.0204082
0.0199427
0.019478
0.0190136
0.0185499
0.0180874
0.0176257
0.0171642
0.0167032
0.0162436
0.0157848
0.0153261
0.014868
0.0144111
0.0139551
0.013499
0.0130436
0.0125893
0.0121358
0.0116823
0.0112298
0.010778
0.0103273
0.00987644
0.009427
0.0089779
0.00853055
0.00808217
0.00763632
0.00718947
0.00674617
0.00629985
0.0058588
0.00541356
0.00497614
0.00453099
0.00409738
0.00365251
0.00322443
0.00277902
0.0023578
0.00191097
0.00150063
0.00104624
0.000655196
0.000103775
0.161336
0.137885
0.124567
0.118767
0.114068
0.111023
0.108829
0.107136
0.105665
0.104425
0.103264
0.102194
0.101193
0.100271
0.0993572
0.0985078
0.0976923
0.0968698
0.0960827
0.0953216
0.0945573
0.0938078
0.0930769
0.092359
0.0916406
0.0909299
0.0902328
0.0895381
0.0888524
0.0881631
0.0874855
0.0868107
0.0861422
0.0854737
0.0848097
0.0841522
0.0834992
0.0828481
0.0822026
0.0815575
0.0809175
0.0802829
0.0796484
0.0790202
0.0783916
0.0777684
0.0771473
0.0765305
0.0759147
0.0753036
0.0746929
0.0740866
0.0734824
0.0728814
0.072282
0.0716861
0.0710916
0.0704994
0.0699106
0.0693235
0.068739
0.0681563
0.0675762
0.0669977
0.0664212
0.0658477
0.0652754
0.0647059
0.0641376
0.0635719
0.0630074
0.062445
0.0618845
0.0613262
0.0607693
0.0602144
0.0596611
0.0591096
0.0585597
0.0580112
0.0574649
0.0569199
0.0563767
0.0558349
0.0552948
0.0547561
0.054219
0.0536833
0.053149
0.0526163
0.052085
0.0515552
0.0510266
0.0504996
0.0499738
0.0494494
0.0489263
0.0484043
0.0478839
0.0473646
0.0468467
0.0463299
0.0458145
0.0453001
0.0447871
0.0442752
0.0437645
0.0432549
0.0427465
0.0422393
0.0417331
0.0412282
0.0407242
0.0402215
0.0397196
0.039219
0.0387193
0.0382208
0.0377231
0.0372266
0.036731
0.0362365
0.0357428
0.0352503
0.0347586
0.034268
0.0337782
0.0332895
0.0328015
0.0323146
0.0318285
0.0313433
0.0308589
0.0303755
0.0298931
0.0294113
0.0289304
0.0284504
0.0279714
0.0274931
0.0270156
0.026539
0.0260633
0.0255882
0.0251141
0.0246408
0.0241681
0.0236963
0.0232255
0.0227552
0.0222856
0.0218169
0.0213492
0.0208819
0.0204152
0.0199495
0.0194848
0.0190204
0.0185565
0.0180939
0.0176322
0.0171706
0.0167095
0.0162499
0.0157911
0.0153323
0.014874
0.0144171
0.0139611
0.013505
0.0130494
0.012595
0.0121415
0.0116879
0.0112353
0.0107835
0.0103328
0.00988185
0.00943225
0.00898315
0.00853582
0.00808734
0.00764134
0.00719448
0.00675118
0.00630479
0.00586357
0.00541832
0.00498085
0.00453566
0.00410185
0.00365696
0.00322878
0.00278326
0.00236194
0.00191471
0.00150456
0.00104969
0.000657528
0.000101056
0.157285
0.137139
0.124774
0.119064
0.114377
0.111296
0.10905
0.107306
0.105803
0.104538
0.103335
0.102285
0.101282
0.100329
0.0994271
0.0985681
0.0977471
0.0969161
0.096126
0.0953648
0.0945959
0.0938427
0.0931108
0.0923925
0.0916707
0.0909585
0.0902615
0.0895674
0.0888827
0.0881938
0.0875178
0.086845
0.0861785
0.0855108
0.0848474
0.0841911
0.0835387
0.0828878
0.0822426
0.0815969
0.0809568
0.080322
0.0796871
0.0790587
0.0784294
0.0778056
0.0771842
0.0765669
0.0759505
0.0753391
0.0747276
0.0741206
0.073516
0.0729145
0.0723145
0.0717181
0.071123
0.0705302
0.0699408
0.0693533
0.0687683
0.068185
0.0676045
0.0670254
0.0664485
0.0658745
0.0653017
0.0647317
0.064163
0.0635969
0.0630319
0.062469
0.0619082
0.0613495
0.0607922
0.060237
0.0596832
0.0591314
0.0585811
0.0580322
0.0574855
0.0569402
0.0563967
0.0558545
0.0553142
0.0547751
0.0542378
0.0537017
0.0531671
0.0526342
0.0521026
0.0515725
0.0510437
0.0505164
0.0499903
0.0494657
0.0489423
0.0484201
0.0478994
0.0473799
0.0468618
0.0463448
0.0458292
0.0453146
0.0448014
0.0442892
0.0437784
0.0432686
0.0427599
0.0422526
0.0417462
0.0412411
0.0407369
0.040234
0.039732
0.0392312
0.0387313
0.0382327
0.0377348
0.0372381
0.0367424
0.0362478
0.035754
0.0352613
0.0347695
0.0342787
0.0337888
0.0332999
0.0328118
0.0323247
0.0318386
0.0313532
0.0308687
0.0303852
0.0299027
0.0294207
0.0289397
0.0284596
0.0279806
0.0275021
0.0270245
0.0265478
0.026072
0.0255968
0.0251226
0.0246492
0.0241764
0.0237045
0.0232336
0.0227632
0.0222935
0.0218247
0.0213569
0.0208896
0.0204227
0.019957
0.0194922
0.0190277
0.0185637
0.0181011
0.0176394
0.0171777
0.0167165
0.0162567
0.015798
0.0153391
0.0148806
0.0144237
0.0139676
0.0135114
0.0130557
0.0126013
0.0121478
0.0116941
0.0112413
0.0107896
0.0103389
0.00988778
0.00943803
0.00898891
0.00854158
0.00809301
0.00764685
0.00719999
0.00675667
0.0063102
0.0058688
0.00542354
0.00498599
0.00454076
0.00410674
0.00366182
0.0032335
0.00278786
0.00236642
0.00191877
0.00150871
0.00105329
0.000659933
9.82666e-05
0.153489
0.136284
0.124865
0.119292
0.114653
0.111549
0.109259
0.107472
0.105942
0.104649
0.103436
0.102369
0.101357
0.100379
0.0994983
0.0986309
0.0977877
0.096969
0.0961745
0.0954102
0.0946362
0.0938783
0.0931458
0.0924282
0.0917021
0.0909878
0.09029
0.0895954
0.0889098
0.0882191
0.0875433
0.0868711
0.0862059
0.0855385
0.0848758
0.0842213
0.0835703
0.0829205
0.0822765
0.0816308
0.0809915
0.0803572
0.0797225
0.0790943
0.0784645
0.0778405
0.0772191
0.0766016
0.0759848
0.0753733
0.0747611
0.0741538
0.0735489
0.072947
0.0723466
0.0717499
0.0711541
0.0705609
0.0699711
0.0693832
0.0687978
0.068214
0.0676332
0.0670536
0.0664761
0.0659018
0.0653286
0.0647582
0.064189
0.0636226
0.0630572
0.0624938
0.0619326
0.0613736
0.0608159
0.0602603
0.0597062
0.0591541
0.0586034
0.0580541
0.0575071
0.0569615
0.0564177
0.0558751
0.0553345
0.0547951
0.0542575
0.0537211
0.0531862
0.052653
0.0521211
0.0515908
0.0510617
0.0505342
0.0500078
0.0494829
0.0489593
0.0484368
0.0479159
0.0473962
0.0468779
0.0463606
0.0458448
0.04533
0.0448166
0.0443042
0.0437931
0.0432832
0.0427743
0.0422668
0.0417602
0.0412549
0.0407505
0.0402475
0.0397452
0.0392444
0.0387443
0.0382454
0.0377474
0.0372506
0.0367547
0.0362599
0.035766
0.0352732
0.0347812
0.0342903
0.0338002
0.0333112
0.0328229
0.0323357
0.0318494
0.0313639
0.0308793
0.0303956
0.029913
0.029431
0.0289498
0.0284696
0.0279905
0.0275118
0.0270341
0.0265573
0.0260814
0.0256061
0.0251318
0.0246583
0.0241855
0.0237134
0.0232423
0.022772
0.0223022
0.0218332
0.0213653
0.0208979
0.020431
0.0199651
0.0195003
0.0190357
0.0185716
0.0181088
0.0176472
0.0171854
0.016724
0.0162642
0.0158054
0.0153465
0.0148879
0.0144308
0.0139748
0.0135185
0.0130627
0.0126082
0.0121547
0.0117009
0.0112479
0.0107962
0.0103455
0.00989427
0.00944432
0.00899519
0.00854789
0.00809922
0.00765287
0.00720598
0.00676265
0.00631611
0.0058745
0.00542922
0.00499158
0.00454632
0.00411204
0.00366708
0.0032386
0.00279284
0.00237122
0.00192315
0.00151309
0.00105705
0.000662415
9.54841e-05
0.149941
0.135333
0.124844
0.11945
0.114893
0.11178
0.109455
0.107632
0.106077
0.104759
0.103537
0.102452
0.10143
0.100451
0.0995583
0.0986853
0.0978243
0.0970235
0.0962255
0.0954432
0.094676
0.0939215
0.0931842
0.0924655
0.091735
0.0910179
0.0903192
0.0896244
0.0889383
0.0882446
0.0875681
0.0868956
0.0862304
0.0855615
0.0848982
0.0842447
0.0835943
0.0829452
0.0823026
0.0816569
0.0810191
0.0803859
0.079752
0.0791248
0.0784951
0.0778715
0.0772506
0.0766332
0.0760165
0.0754051
0.0747925
0.0741851
0.0735802
0.0729781
0.0723774
0.0717806
0.0711843
0.0705907
0.0700008
0.0694125
0.0688269
0.0682427
0.0676617
0.0670815
0.0665037
0.0659291
0.0653556
0.0647848
0.0642153
0.0636486
0.0630828
0.062519
0.0619575
0.0613981
0.0608401
0.0602843
0.0597297
0.0591773
0.0586263
0.0580767
0.0575294
0.0569835
0.0564394
0.0558965
0.0553556
0.0548159
0.054278
0.0537413
0.0532061
0.0526727
0.0521405
0.0516099
0.0510806
0.0505528
0.0500262
0.0495011
0.0489772
0.0484544
0.0479333
0.0474134
0.0468948
0.0463773
0.0458613
0.0453463
0.0448327
0.0443201
0.0438088
0.0432986
0.0427895
0.0422818
0.041775
0.0412696
0.040765
0.0402618
0.0397594
0.0392583
0.038758
0.0382591
0.0377609
0.0372639
0.0367678
0.0362729
0.0357788
0.0352858
0.0347937
0.0343026
0.0338124
0.0333233
0.0328349
0.0323475
0.0318611
0.0313754
0.0308907
0.0304069
0.0299241
0.029442
0.0289607
0.0284804
0.0280011
0.0275223
0.0270445
0.0265676
0.0260916
0.0256162
0.0251417
0.0246681
0.0241952
0.023723
0.0232518
0.0227814
0.0223115