/*--------------------------------*- C++ -*----------------------------------*\
  =========                 |
  \\      /  F ield         | OpenFOAM: The Open Source CFD Toolbox
   \\    /   O peration     | Website:  https://openfoam.org
    \\  /    A nd           | Version:  12
     \\/     M anipulation  |
\*---------------------------------------------------------------------------*/
FoamFile
{
    format      ascii;
    class       volScalarField;
    location    "200";
    object      p;
}
// * * * * * * * * * * * * * * * * * * * * * * * * * * * * * * * * * * * * * //

dimensions      [0 2 -2 0 0 0 0];

internalField   nonuniform List<scalar> 
20000
(
0.251175
0.129907
0.103598
0.101721
0.0993609
0.09734
0.0959844
0.0948135
0.093762
0.092732
0.091738
0.0907958
0.0898866
0.0890236
0.0881983
0.0874
0.0866213
0.0858465
0.0850866
0.0843486
0.0836166
0.0828907
0.0821774
0.081472
0.0807776
0.0800845
0.0794014
0.0787202
0.078048
0.0773764
0.0767136
0.0760521
0.075396
0.0747429
0.074093
0.0734469
0.072806
0.0721669
0.0715312
0.0708986
0.0702681
0.0696428
0.0690181
0.0683985
0.0677791
0.0671644
0.0665505
0.0659413
0.0653326
0.0647285
0.0641253
0.0635259
0.0629278
0.0623334
0.0617406
0.061151
0.0605633
0.0599788
0.0593976
0.0588189
0.0582444
0.0576719
0.0571039
0.0565362
0.0559715
0.0554068
0.0548434
0.0542791
0.0537161
0.0531526
0.0525917
0.0520293
0.0514742
0.0509205
0.050376
0.0498388
0.0493103
0.0487911
0.0482812
0.0477842
0.0472952
0.046816
0.0463434
0.0458798
0.0454236
0.0449762
0.0445284
0.0440866
0.0436445
0.043204
0.0427649
0.0423272
0.0418911
0.0414516
0.0410132
0.0405746
0.0401342
0.0396966
0.0392569
0.0388131
0.0383699
0.0379278
0.0374877
0.0370471
0.0366042
0.0361601
0.0357203
0.035287
0.0348543
0.0344159
0.0339806
0.0335478
0.0331141
0.0326812
0.0322467
0.031812
0.0313877
0.0309623
0.0305366
0.0301177
0.0296966
0.0292873
0.0288808
0.0284769
0.0280743
0.0276707
0.0272704
0.0268766
0.0264878
0.0261045
0.025723
0.025344
0.0249628
0.0245845
0.0242038
0.0238248
0.0234465
0.0230661
0.0226858
0.0223037
0.0219228
0.0215421
0.0211622
0.0207842
0.0204038
0.0200284
0.019651
0.0192758
0.0189029
0.0185316
0.0181557
0.0177807
0.0174089
0.017041
0.0166736
0.0163061
0.0159361
0.0155731
0.015206
0.0148376
0.0144658
0.0140936
0.0137248
0.0133546
0.0129821
0.0126054
0.012231
0.011862
0.0115
0.011134
0.0107673
0.0103966
0.0100229
0.00965275
0.009284
0.00890741
0.00853955
0.00817057
0.00779803
0.00743777
0.00707845
0.00671769
0.00635994
0.0060033
0.0056431
0.00527951
0.00492531
0.00456824
0.00421255
0.00384872
0.0034942
0.00314352
0.00280199
0.00244529
0.00209885
0.00173948
0.00140141
0.00102167
0.00068813
0.000222221
0.214761
0.127912
0.104269
0.102176
0.099626
0.0975201
0.0961249
0.0949279
0.0938568
0.0928119
0.0918067
0.0908555
0.0899385
0.0890701
0.0882397
0.0874373
0.086655
0.0858771
0.0851147
0.0843745
0.0836405
0.0829129
0.0821981
0.0814913
0.0807956
0.0801015
0.0794174
0.0787353
0.0780622
0.0773899
0.0767264
0.0760643
0.0754076
0.0747539
0.0741036
0.0734571
0.0728157
0.0721762
0.0715401
0.0709072
0.0702764
0.0696507
0.0690257
0.0684059
0.0677862
0.0671713
0.0665572
0.0659477
0.0653388
0.0647345
0.0641312
0.0635316
0.0629334
0.0623388
0.0617458
0.061156
0.0605682
0.0599835
0.0594022
0.0588233
0.0582487
0.0576761
0.0571079
0.0565402
0.0559753
0.0554106
0.0548472
0.0542829
0.0537199
0.0531564
0.0525955
0.0520331
0.051478
0.0509243
0.0503796
0.0498424
0.0493138
0.0487945
0.0482844
0.0477872
0.0472981
0.0468187
0.046346
0.0458823
0.045426
0.0449785
0.0445307
0.0440888
0.0436467
0.0432061
0.042767
0.0423292
0.0418931
0.0414536
0.0410151
0.0405765
0.0401361
0.0396984
0.0392587
0.0388149
0.0383716
0.0379296
0.0374893
0.0370487
0.0366058
0.0361616
0.0357218
0.0352883
0.0348556
0.0344173
0.0339819
0.0335491
0.0331153
0.0326823
0.0322479
0.0318132
0.0313888
0.0309634
0.0305377
0.0301187
0.0296976
0.0292882
0.0288817
0.0284778
0.0280752
0.0276715
0.0272712
0.0268774
0.0264886
0.0261052
0.0257237
0.0253446
0.0249634
0.0245852
0.0242044
0.0238254
0.0234472
0.0230667
0.0226865
0.0223043
0.0219234
0.0215428
0.0211628
0.0207849
0.0204046
0.0200291
0.0196517
0.0192765
0.0189036
0.0185322
0.0181564
0.0177813
0.0174096
0.0170417
0.0166742
0.0163068
0.0159369
0.0155738
0.0152067
0.0148383
0.0144666
0.0140944
0.0137256
0.0133554
0.0129829
0.0126063
0.0122318
0.0118627
0.0115006
0.0111346
0.0107679
0.0103974
0.0100237
0.00965353
0.00928482
0.00890827
0.00854029
0.00817132
0.00779877
0.00743837
0.00707905
0.00671831
0.00636052
0.00600381
0.00564367
0.00528018
0.00492597
0.0045688
0.00421313
0.00384941
0.00349495
0.00314417
0.00280261
0.00244593
0.00209956
0.00174021
0.00140213
0.0010221
0.000687656
0.000221688
0.199267
0.13
0.105848
0.102887
0.10006
0.0978394
0.0963828
0.0951405
0.0940345
0.0929621
0.0919375
0.0909705
0.0900393
0.0891623
0.0883225
0.087512
0.0867226
0.0859389
0.0851716
0.0844269
0.0836887
0.0829577
0.0822398
0.0815303
0.080832
0.0801356
0.0794495
0.0787655
0.0780907
0.0774169
0.076752
0.0760885
0.0754307
0.0747759
0.0741245
0.0734771
0.0728348
0.0721945
0.0715577
0.070924
0.0702926
0.0696663
0.0690407
0.0684203
0.0678001
0.0671847
0.0665701
0.0659602
0.0653509
0.0647461
0.0641424
0.0635424
0.0629439
0.062349
0.0617556
0.0611656
0.0605774
0.0599925
0.0594109
0.0588317
0.0582569
0.057684
0.0571155
0.0565476
0.0559826
0.0554178
0.0548543
0.0542899
0.0537268
0.0531633
0.0526023
0.0520398
0.0514846
0.0509307
0.0503859
0.0498484
0.0493196
0.0488
0.0482897
0.0477921
0.0473028
0.0468232
0.0463503
0.0458865
0.04543
0.0449822
0.0445343
0.0440923
0.0436501
0.0432096
0.0427704
0.0423325
0.0418962
0.0414568
0.0410183
0.0405795
0.0401392
0.0397013
0.0392615
0.0388177
0.0383745
0.0379323
0.037492
0.0370513
0.0366083
0.0361642
0.0357243
0.0352906
0.0348577
0.0344196
0.0339842
0.0335511
0.0331173
0.0326842
0.0322498
0.0318153
0.0313908
0.0309653
0.0305396
0.0301204
0.0296992
0.0292898
0.0288831
0.0284793
0.0280767
0.027673
0.0272726
0.0268787
0.0264898
0.0261064
0.0257248
0.0253458
0.0249645
0.0245863
0.0242056
0.0238265
0.0234484
0.0230679
0.0226877
0.0223055
0.0219246
0.0215441
0.021164
0.0207861
0.0204058
0.0200302
0.0196528
0.0192776
0.0189046
0.0185332
0.0181574
0.0177824
0.0174107
0.0170427
0.0166753
0.016308
0.0159381
0.0155749
0.0152078
0.0148395
0.0144678
0.0140957
0.0137268
0.0133567
0.0129841
0.0126075
0.0122332
0.0118641
0.0115018
0.0111356
0.0107688
0.0103984
0.010025
0.00965483
0.00928601
0.00890946
0.00854139
0.00817239
0.00779991
0.00743938
0.00708
0.00671929
0.00636145
0.00600455
0.00564437
0.00528108
0.00492693
0.00456961
0.00421391
0.0038504
0.0034962
0.00314528
0.00280358
0.00244691
0.00210065
0.00174127
0.00140329
0.00102264
0.000687783
0.000220766
0.193752
0.131104
0.107765
0.103599
0.100521
0.0981912
0.0966702
0.0953824
0.0942424
0.0931432
0.0921002
0.0911172
0.0901715
0.089285
0.0884342
0.0876136
0.0868154
0.0860245
0.0852509
0.0845004
0.0837566
0.083021
0.0822991
0.0815859
0.0808841
0.0801844
0.0794955
0.078809
0.0781319
0.0774559
0.0767889
0.0761236
0.0754641
0.0748077
0.0741548
0.0735062
0.0728626
0.0722211
0.0715831
0.0709484
0.070316
0.0696888
0.0690624
0.0684411
0.0678202
0.067204
0.0665888
0.0659782
0.0653683
0.064763
0.0641587
0.0635582
0.0629591
0.0623637
0.0617699
0.0611794
0.0605908
0.0600054
0.0594234
0.0588438
0.0582686
0.0576954
0.0571267
0.0565585
0.0559932
0.0554281
0.0548644
0.0542999
0.0537367
0.0531729
0.0526117
0.052049
0.0514935
0.0509394
0.0503942
0.0498563
0.0493272
0.0488073
0.0482965
0.0477985
0.0473089
0.046829
0.0463558
0.0458918
0.045435
0.0449869
0.0445389
0.0440968
0.0436545
0.0432139
0.0427747
0.0423368
0.0419003
0.0414608
0.0410223
0.0405835
0.0401432
0.0397051
0.039265
0.0388213
0.0383782
0.037936
0.0374955
0.0370546
0.0366114
0.0361674
0.0357276
0.0352935
0.0348604
0.0344225
0.0339871
0.0335538
0.0331199
0.0326866
0.0322522
0.0318179
0.0313934
0.0309678
0.030542
0.0301227
0.0297013
0.0292918
0.028885
0.0284812
0.0280787
0.0276748
0.0272744
0.0268804
0.0264915
0.026108
0.0257263
0.0253473
0.0249661
0.0245879
0.0242073
0.0238282
0.0234501
0.0230697
0.0226895
0.0223073
0.0219264
0.0215458
0.0211656
0.0207878
0.0204075
0.0200318
0.0196543
0.0192791
0.0189061
0.0185345
0.0181588
0.0177839
0.0174121
0.0170441
0.0166767
0.0163094
0.0159397
0.0155764
0.0152093
0.014841
0.0144694
0.0140973
0.0137283
0.0133582
0.0129856
0.012609
0.0122351
0.0118661
0.0115034
0.0111369
0.0107698
0.0103997
0.0100267
0.00965656
0.00928744
0.00891082
0.0085427
0.00817359
0.00780128
0.0074407
0.00708121
0.00672051
0.00636264
0.00600544
0.00564507
0.00528207
0.00492808
0.0045706
0.00421479
0.00385151
0.0034978
0.00314678
0.00280484
0.00244811
0.00210198
0.00174256
0.00140484
0.00102349
0.000689824
0.000219656
0.187769
0.130581
0.109547
0.104496
0.100958
0.0984976
0.0969102
0.0955856
0.0944269
0.0933148
0.092262
0.0912677
0.0903112
0.0894157
0.0885547
0.0877246
0.0869182
0.0861205
0.0853408
0.0845844
0.0838349
0.0830947
0.0823684
0.0816515
0.0809456
0.0802424
0.0795504
0.078861
0.0781811
0.0775026
0.0768333
0.0761659
0.0755045
0.0748461
0.0741915
0.0735414
0.0728963
0.0722533
0.0716141
0.0709781
0.0703445
0.0697162
0.0690887
0.0684666
0.0678446
0.0672276
0.0666116
0.0660002
0.0653895
0.0647835
0.0641786
0.0635773
0.0629777
0.0623817
0.0617873
0.0611963
0.0606071
0.0600212
0.0594387
0.0588586
0.058283
0.0577093
0.0571402
0.0565717
0.0560061
0.0554407
0.0548768
0.054312
0.0537485
0.0531844
0.0526228
0.0520598
0.0515039
0.0509494
0.0504038
0.0498653
0.0493356
0.0488153
0.048304
0.0478055
0.0473155
0.0468352
0.0463618
0.0458977
0.0454405
0.044992
0.0445438
0.0441017
0.0436593
0.0432187
0.0427795
0.0423415
0.0419047
0.0414652
0.0410268
0.0405879
0.0401475
0.0397094
0.0392689
0.0388252
0.0383822
0.03794
0.0374995
0.0370583
0.0366149
0.036171
0.0357313
0.0352969
0.0348634
0.0344257
0.0339904
0.0335569
0.0331227
0.0326892
0.0322549
0.0318209
0.0313964
0.0309706
0.0305447
0.0301251
0.0297034
0.0292939
0.0288871
0.0284834
0.0280809
0.0276768
0.0272763
0.0268823
0.0264933
0.0261098
0.025728
0.0253491
0.0249679
0.0245898
0.0242093
0.0238301
0.0234521
0.0230719
0.0226918
0.0223095
0.0219284
0.0215479
0.0211675
0.0207897
0.0204094
0.0200335
0.019656
0.0192808
0.0189077
0.0185359
0.0181602
0.0177855
0.0174137
0.0170456
0.0166781
0.0163109
0.0159415
0.015578
0.0152108
0.0148426
0.0144711
0.0140991
0.01373
0.0133599
0.0129872
0.0126106
0.0122372
0.0118683
0.0115052
0.0111383
0.0107708
0.010401
0.0100284
0.00965852
0.00928887
0.00891209
0.00854401
0.00817471
0.00780266
0.00744211
0.00708248
0.0067218
0.00636392
0.00600633
0.00564562
0.00528299
0.00492925
0.00457161
0.0042156
0.00385256
0.00349954
0.00314845
0.00280617
0.00244931
0.00210329
0.00174387
0.00140644
0.00102587
0.000693472
0.000218399
0.181292
0.129944
0.11071
0.10554
0.101453
0.0987911
0.0971185
0.095747
0.0945696
0.0934514
0.092399
0.091401
0.0904405
0.0895399
0.0886715
0.087835
0.0870228
0.0862192
0.0854346
0.0846731
0.0839183
0.0831739
0.0824437
0.0817232
0.081013
0.0803062
0.0796112
0.0789188
0.0782363
0.0775551
0.0768833
0.0762136
0.0755502
0.0748898
0.0742332
0.0735815
0.0729347
0.0722901
0.0716495
0.0710121
0.0703772
0.0697477
0.0691191
0.0684959
0.0678729
0.0672548
0.0666379
0.0660256
0.0654141
0.0648073
0.0642015
0.0635996
0.0629992
0.0624026
0.0618075
0.0612158
0.060626
0.0600395
0.0594565
0.0588758
0.0582997
0.0577255
0.0571561
0.0565871
0.0560211
0.0554553
0.0548911
0.054326
0.0537621
0.0531976
0.0526355
0.052072
0.0515155
0.0509605
0.0504143
0.0498752
0.0493449
0.0488239
0.048312
0.047813
0.0473225
0.0468419
0.0463683
0.045904
0.0454465
0.0449975
0.0445492
0.0441069
0.0436643
0.0432237
0.0427846
0.0423466
0.0419095
0.04147
0.0410317
0.0405926
0.0401523
0.0397139
0.0392731
0.0388294
0.0383866
0.0379444
0.0375037
0.0370623
0.0366185
0.0361748
0.0357354
0.0353006
0.0348666
0.0344293
0.033994
0.0335602
0.0331259
0.032692
0.0322578
0.0318241
0.0313996
0.0309736
0.0305475
0.0301276
0.0297057
0.0292963
0.0288894
0.0284857
0.0280833
0.0276789
0.0272782
0.0268842
0.0264953
0.0261118
0.0257299
0.0253511
0.0249699
0.0245919
0.0242115
0.0238323
0.0234544
0.0230744
0.0226944
0.0223119
0.0219307
0.0215502
0.0211697
0.0207918
0.0204115
0.0200353
0.0196578
0.0192827
0.0189096
0.0185374
0.0181618
0.0177873
0.0174154
0.0170472
0.0166797
0.0163126
0.0159434
0.0155798
0.0152125
0.0148444
0.0144729
0.014101
0.0137318
0.0133618
0.0129888
0.0126123
0.0122395
0.0118708
0.0115072
0.0111398
0.010772
0.0104023
0.0100304
0.00966067
0.0092903
0.00891329
0.00854529
0.00817572
0.00780405
0.00744356
0.00708378
0.00672317
0.00636528
0.00600715
0.005646
0.00528387
0.00493046
0.00457262
0.0042163
0.00385357
0.00350139
0.00315025
0.00280749
0.00245045
0.00210452
0.00174521
0.00140834
0.00103024
0.000697442
0.000217766
0.175302
0.129813
0.111431
0.106212
0.101997
0.0991587
0.0973416
0.0959007
0.0946902
0.0935543
0.0924991
0.0914999
0.0905426
0.0896448
0.0887742
0.0879361
0.087122
0.0863143
0.0855265
0.0847616
0.0840026
0.0832545
0.082521
0.0817976
0.0810834
0.0803733
0.0796758
0.0789806
0.0782957
0.0776116
0.0769373
0.0762656
0.0756002
0.0749377
0.0742792
0.0736257
0.0729772
0.072331
0.071689
0.07105
0.0704137
0.069783
0.0691531
0.0685287
0.0679045
0.0672854
0.0666675
0.0660542
0.0654418
0.0648342
0.0642275
0.0636247
0.0630236
0.0624263
0.0618304
0.061238
0.0606475
0.0600603
0.0594767
0.0588954
0.0583188
0.057744
0.0571741
0.0566047
0.0560381
0.055472
0.0549073
0.0543418
0.0537774
0.0532123
0.0526496
0.0520855
0.0515282
0.0509726
0.0504258
0.0498859
0.0493548
0.0488331
0.0483206
0.047821
0.04733
0.046849
0.0463751
0.0459106
0.0454528
0.0450033
0.0445549
0.0441125
0.0436697
0.0432291
0.0427901
0.042352
0.0419145
0.0414751
0.041037
0.0405976
0.0401574
0.0397189
0.0392776
0.0388339
0.0383913
0.0379491
0.0375084
0.0370666
0.0366225
0.036179
0.0357399
0.0353046
0.03487
0.0344331
0.0339979
0.0335637
0.0331292
0.0326949
0.0322607
0.0318275
0.0314031
0.0309767
0.0305504
0.0301302
0.029708
0.0292987
0.0288917
0.0284881
0.0280858
0.027681
0.0272802
0.0268862
0.0264974
0.0261139
0.0257319
0.0253533
0.0249721
0.0245941
0.0242139
0.0238347
0.0234569
0.0230772
0.0226973
0.0223147
0.0219333
0.0215527
0.021172
0.0207941
0.0204139
0.0200374
0.0196598
0.0192847
0.0189115
0.018539
0.0181635
0.0177891
0.0174171
0.0170488
0.0166814
0.0163143
0.0159455
0.0155817
0.0152142
0.0148461
0.0144749
0.0141031
0.0137337
0.0133637
0.0129905
0.0126141
0.0122421
0.0118734
0.0115093
0.0111413
0.0107733
0.0104038
0.0100325
0.009663
0.00929165
0.00891442
0.00854651
0.00817661
0.00780547
0.007445
0.00708509
0.00672464
0.00636665
0.00600783
0.00564618
0.00528476
0.00493172
0.00457355
0.00421684
0.00385459
0.00350336
0.00315205
0.00280868
0.00245146
0.00210561
0.00174659
0.0014106
0.00103593
0.000702346
0.000217522
0.169872
0.12954
0.112258
0.106659
0.10239
0.0996045
0.0976189
0.0960721
0.0948167
0.0936526
0.092585
0.091575
0.0906159
0.089721
0.088851
0.0880161
0.0872051
0.0863973
0.0856096
0.0848442
0.0840827
0.0833322
0.0825965
0.0818712
0.0811539
0.0804411
0.0797414
0.079044
0.0783571
0.0776703
0.0769938
0.0763203
0.075653
0.0749885
0.0743281
0.0736728
0.0730227
0.0723749
0.0717315
0.0710908
0.0704533
0.0698213
0.0691901
0.0685645
0.0679391
0.0673189
0.0667
0.0660857
0.0654723
0.0648638
0.0642561
0.0636524
0.0630505
0.0624525
0.0618558
0.0612626
0.0606714
0.0600834
0.0594992
0.0589172
0.05834
0.0577646
0.0571943
0.0566243
0.0560573
0.0554906
0.0549255
0.0543594
0.0537945
0.0532287
0.0526652
0.0521005
0.0515422
0.0509859
0.0504384
0.0498975
0.0493656
0.0488431
0.0483298
0.0478296
0.0473381
0.0468566
0.0463825
0.0459178
0.0454596
0.0450095
0.044561
0.0441184
0.0436754
0.0432349
0.042796
0.0423578
0.0419199
0.0414807
0.0410426
0.040603
0.0401629
0.0397242
0.0392824
0.0388387
0.0383963
0.0379542
0.0375134
0.0370711
0.0366267
0.0361836
0.0357447
0.035309
0.0348736
0.0344372
0.0340022
0.0335675
0.0331327
0.0326979
0.0322639
0.0318313
0.0314068
0.03098
0.0305535
0.0301328
0.0297104
0.0293014
0.0288942
0.0284906
0.0280884
0.0276832
0.0272823
0.0268883
0.0264997
0.0261161
0.025734
0.0253556
0.0249744
0.0245966
0.0242165
0.0238373
0.0234596
0.0230801
0.0227004
0.0223179
0.0219363
0.0215555
0.0211746
0.0207967
0.0204165
0.0200397
0.019662
0.019287
0.0189136
0.0185408
0.0181654
0.0177912
0.0174189
0.0170505
0.0166831
0.0163162
0.0159478
0.0155838
0.015216
0.014848
0.0144769
0.0141053
0.0137356
0.0133657
0.0129922
0.0126161
0.0122449
0.0118761
0.0115114
0.0111429
0.0107747
0.0104056
0.0100348
0.00966547
0.00929296
0.00891558
0.00854769
0.00817746
0.00780697
0.00744642
0.00708647
0.00672629
0.006368
0.00600826
0.0056462
0.00528577
0.00493306
0.00457437
0.00421725
0.0038558
0.00350544
0.0031537
0.00280969
0.00245229
0.00210656
0.00174811
0.00141333
0.00104277
0.000708944
0.000217236
0.164781
0.129176
0.112966
0.107205
0.102688
0.099912
0.0979365
0.0962835
0.0949586
0.0937597
0.092677
0.0916495
0.0906818
0.0897827
0.0889068
0.0880723
0.0872649
0.086459
0.0856751
0.0849129
0.0841521
0.0834016
0.0826659
0.0819404
0.081221
0.0805065
0.0798053
0.0791064
0.0784179
0.0777291
0.0770508
0.0763757
0.075707
0.0750406
0.0743785
0.0737217
0.0730701
0.0724209
0.0717761
0.0711339
0.0704951
0.069862
0.0692293
0.0686027
0.0679761
0.0673547
0.0667348
0.0661196
0.0655052
0.0648958
0.0642871
0.0636825
0.0630798
0.0624809
0.0618834
0.0612895
0.0606974
0.0601086
0.0595238
0.0589411
0.0583633
0.0577873
0.0572165
0.0566459
0.0560783
0.0555111
0.0549454
0.0543788
0.0538132
0.0532466
0.0526823
0.0521169
0.0515575
0.0510003
0.050452
0.0499102
0.0493773
0.0488538
0.0483397
0.0478387
0.0473467
0.0468646
0.0463903
0.0459254
0.0454668
0.0450161
0.0445676
0.0441248
0.0436814
0.043241
0.0428022
0.0423638
0.0419256
0.0414867
0.0410487
0.0406087
0.0401688
0.0397298
0.0392875
0.0388439
0.0384017
0.0379596
0.0375187
0.0370758
0.0366313
0.0361886
0.0357499
0.0353135
0.0348775
0.0344419
0.0340069
0.0335714
0.0331363
0.032701
0.0322673
0.0318354
0.0314107
0.0309833
0.0305567
0.0301355
0.0297128
0.0293043
0.0288967
0.0284931
0.0280912
0.0276854
0.0272843
0.0268905
0.026502
0.0261184
0.0257363
0.025358
0.0249768
0.0245992
0.0242194
0.0238402
0.0234626
0.0230831
0.0227036
0.0223213
0.0219395
0.0215586
0.0211775
0.0207995
0.0204194
0.0200422
0.0196645
0.0192894
0.0189158
0.0185426
0.0181674
0.0177932
0.0174207
0.0170523
0.016685
0.0163184
0.0159503
0.0155859
0.0152179
0.0148499
0.0144792
0.0141078
0.0137376
0.0133677
0.0129941
0.0126184
0.0122478
0.0118791
0.0115137
0.0111443
0.0107764
0.0104077
0.0100374
0.00966798
0.00929421
0.00891683
0.00854885
0.00817832
0.00780861
0.00744777
0.00708804
0.00672814
0.00636912
0.00600833
0.00564615
0.005287
0.0049344
0.00457494
0.00421761
0.00385727
0.00350745
0.00315503
0.00281039
0.00245284
0.00210729
0.00174983
0.00141657
0.00105079
0.000717095
0.000216994
0.15995
0.128754
0.113529
0.107701
0.10308
0.100145
0.0981554
0.0965045
0.0951367
0.0938837
0.0927769
0.0917299
0.0907531
0.0898468
0.0889601
0.0881211
0.0873119
0.0865033
0.0857211
0.0849624
0.0842037
0.0834558
0.0827228
0.0819997
0.0812803
0.0805656
0.0798644
0.0791649
0.0784758
0.0777855
0.0771061
0.0764299
0.0757602
0.0750923
0.0744288
0.0737709
0.073118
0.0724676
0.0718217
0.071178
0.0705382
0.069904
0.0692701
0.0686425
0.0680148
0.0673923
0.0667715
0.0661553
0.06554
0.0649296
0.06432
0.0637145
0.063111
0.0625113
0.061913
0.0613183
0.0607254
0.0601357
0.0595503
0.0589669
0.0583885
0.0578119
0.0572405
0.0566693
0.0561011
0.0555333
0.054967
0.0543997
0.0538334
0.0532661
0.0527007
0.0521346
0.051574
0.051016
0.0504669
0.0499239
0.0493901
0.0488655
0.0483505
0.0478487
0.0473559
0.0468733
0.0463988
0.0459337
0.0454745
0.0450232
0.0445748
0.0441315
0.0436879
0.0432476
0.0428087
0.0423701
0.0419316
0.0414931
0.041055
0.0406148
0.0401751
0.0397357
0.039293
0.0388495
0.0384075
0.0379654
0.0375243
0.0370808
0.0366365
0.0361944
0.0357554
0.0353182
0.0348818
0.034447
0.0340117
0.0335755
0.03314
0.0327043
0.0322713
0.03184
0.0314146
0.0309866
0.0305599
0.0301381
0.0297156
0.0293075
0.0288992
0.0284957
0.0280939
0.0276877
0.0272865
0.0268928
0.0265044
0.0261207
0.0257385
0.0253605
0.0249794
0.0246019
0.0242223
0.0238433
0.0234655
0.0230861
0.0227069
0.0223248
0.021943
0.021562
0.0211805
0.0208026
0.0204226
0.0200452
0.0196674
0.019292
0.0189181
0.0185447
0.0181697
0.0177953
0.0174226
0.0170542
0.0166872
0.0163209
0.0159528
0.015588
0.0152198
0.014852
0.0144817
0.0141103
0.0137396
0.0133697
0.0129962
0.0126211
0.0122508
0.0118821
0.011516
0.0111457
0.0107784
0.0104101
0.0100402
0.00967042
0.00929555
0.00891832
0.00855003
0.00817943
0.00781046
0.00744908
0.00708989
0.00673014
0.00636986
0.006008
0.00564634
0.00528855
0.00493551
0.00457518
0.0042181
0.003859
0.00350925
0.00315603
0.00281071
0.0024531
0.00210792
0.00175195
0.00142043
0.00105994
0.000726621
0.000216841
0.155378
0.128242
0.11397
0.108129
0.103452
0.100452
0.098327
0.0966841
0.0952837
0.0940219
0.0928926
0.0918184
0.090828
0.0899157
0.0890176
0.0881735
0.0873602
0.0865451
0.0857609
0.0850016
0.0842415
0.0834941
0.0827637
0.082044
0.081326
0.0806132
0.0799139
0.0792158
0.0785275
0.0778367
0.0771572
0.0764808
0.0758108
0.0751418
0.0744773
0.0738188
0.0731651
0.0725136
0.071867
0.071222
0.0705813
0.0699463
0.0693114
0.068683
0.0680542
0.0674308
0.0668091
0.0661922
0.065576
0.0649648
0.0643542
0.0637479
0.0631437
0.0625432
0.061944
0.0613487
0.0607551
0.0601645
0.0595785
0.0589944
0.0584154
0.057838
0.0572662
0.0566943
0.0561255
0.0555571
0.0549902
0.0544221
0.0538551
0.0532869
0.0527206
0.0521537
0.0515917
0.051033
0.0504829
0.049939
0.0494041
0.0488783
0.0483625
0.0478594
0.0473659
0.0468827
0.046408
0.0459424
0.0454828
0.0450311
0.0445826
0.0441387
0.0436949
0.0432547
0.0428154
0.0423765
0.0419381
0.0415
0.0410616
0.0406213
0.0401819
0.0397419
0.039299
0.0388557
0.0384137
0.0379715
0.0375302
0.0370861
0.0366425
0.0362008
0.0357609
0.035323
0.0348869
0.0344528
0.0340166
0.0335796
0.0331438
0.0327081
0.0322761
0.031845
0.0314184
0.0309899
0.0305631
0.0301408
0.0297189
0.0293108
0.0289015
0.0284982
0.0280967
0.0276902
0.0272887
0.0268953
0.0265069
0.0261229
0.0257406
0.025363
0.0249823
0.0246048
0.0242253
0.0238465
0.0234686
0.023089
0.0227101
0.0223285
0.0219467
0.0215657
0.0211838
0.0208058
0.0204261
0.0200484
0.0196707
0.0192949
0.0189205
0.018547
0.0181721
0.0177973
0.0174245
0.0170563
0.0166895
0.0163238
0.0159556
0.0155902
0.015222
0.0148545
0.0144845
0.0141128
0.0137415
0.0133719
0.0129986
0.0126241
0.0122539
0.0118852
0.0115182
0.0111472
0.0107808
0.0104127
0.0100431
0.00967285
0.00929731
0.00892017
0.0085513
0.00818102
0.00781246
0.00745031
0.00709197
0.00673211
0.00637014
0.00600749
0.00564703
0.00529029
0.00493615
0.0045751
0.0042188
0.00386083
0.0035107
0.00315655
0.00281051
0.00245299
0.00210858
0.00175469
0.00142468
0.0010699
0.000737474
0.000216802
0.151067
0.127615
0.114294
0.108492
0.103792
0.100746
0.0985519
0.096859
0.0953871
0.0941467
0.0929852
0.0919155
0.0909137
0.0899917
0.0890777
0.0882281
0.0874124
0.0865898
0.0858029
0.0850418
0.0842777
0.0835276
0.0827967
0.0820779
0.0813593
0.0806474
0.0799503
0.0792547
0.0785686
0.0778786
0.0772006
0.0765252
0.075856
0.0751869
0.0745219
0.0738635
0.0732095
0.0725574
0.0719106
0.0712645
0.0706233
0.0699878
0.0693521
0.0687232
0.0680934
0.0674693
0.066847
0.0662293
0.0656124
0.0650005
0.064389
0.0637821
0.0631772
0.0625761
0.0619762
0.0613802
0.0607858
0.0601944
0.0596079
0.0590231
0.0584436
0.0578655
0.0572932
0.0567205
0.0561512
0.0555822
0.0550147
0.0544459
0.053878
0.0533092
0.0527418
0.052174
0.0516108
0.0510513
0.0505002
0.0499553
0.0494194
0.0488929
0.048376
0.0478713
0.047377
0.0468931
0.0464179
0.0459517
0.045492
0.0450404
0.0445912
0.0441462
0.0437027
0.0432621
0.0428222
0.0423834
0.0419453
0.0415072
0.0410682
0.0406284
0.040189
0.0397482
0.0393058
0.0388624
0.03842
0.0379779
0.0375363
0.037092
0.0366496
0.0362077
0.0357663
0.0353282
0.034893
0.0344589
0.0340213
0.0335836
0.0331478
0.0327127
0.0322819
0.0318501
0.031422
0.0309933
0.0305665
0.0301438
0.0297228
0.0293142
0.0289039
0.0285009
0.0280994
0.0276928
0.027291
0.0268978
0.0265095
0.0261252
0.0257427
0.0253654
0.0249854
0.0246077
0.0242281
0.0238497
0.0234716
0.0230918
0.0227131
0.0223321
0.0219506
0.0215696
0.0211874
0.0208093
0.0204299
0.0200519
0.0196743
0.0192982
0.0189232
0.0185496
0.0181745
0.0177994
0.0174266
0.0170586
0.0166921
0.0163271
0.0159586
0.0155928
0.0152247
0.0148571
0.0144875
0.0141153
0.0137435
0.0133744
0.0130014
0.0126275
0.0122572
0.0118882
0.0115203
0.011149
0.0107832
0.0104151
0.010046
0.0096754
0.00929986
0.00892242
0.00855293
0.00818329
0.0078145
0.00745154
0.00709428
0.00673401
0.00636999
0.00600715
0.00564835
0.00529207
0.00493627
0.00457488
0.00421994
0.00386267
0.00351164
0.00315649
0.00280977
0.00245275
0.00210967
0.00175821
0.00142902
0.00108055
0.000749636
0.000216756
0.147016
0.12687
0.1145
0.108789
0.104101
0.101019
0.0987733
0.0970283
0.0955251
0.0942604
0.0930569
0.092006
0.0910033
0.0900505
0.0891477
0.0882884
0.0874674
0.0866362
0.0858462
0.085085
0.0843163
0.0835624
0.0828305
0.0821114
0.0813894
0.0806762
0.079979
0.0792841
0.078599
0.0779094
0.077233
0.0765595
0.0758924
0.0752241
0.0745597
0.0739025
0.0732491
0.0725972
0.0719508
0.071304
0.0706628
0.0700271
0.0693911
0.0687619
0.0681313
0.0675067
0.066884
0.0662659
0.0656484
0.0650361
0.0644238
0.0638163
0.0632109
0.0626093
0.0620087
0.0614123
0.0608173
0.060225
0.0596381
0.0590528
0.0584727
0.057894
0.0573211
0.0567477
0.0561779
0.0556082
0.0550403
0.0544707
0.0539021
0.0533326
0.0527642
0.0521956
0.0516312
0.0510709
0.0505188
0.0499729
0.0494358
0.0489088
0.048391
0.0478846
0.0473893
0.0469044
0.0464288
0.0459617
0.0455021
0.0450508
0.0446004
0.0441542
0.0437112
0.0432698
0.042829
0.0423908
0.041953
0.0415144
0.0410748
0.0406359
0.0401962
0.0397548
0.0393134
0.0388697
0.0384268
0.0379844
0.0375424
0.0370987
0.0366573
0.0362145
0.0357717
0.0353345
0.0348997
0.0344649
0.0340258
0.0335879
0.0331524
0.0327185
0.0322885
0.0318553
0.0314256
0.0309973
0.0305702
0.030147
0.0297269
0.0293175
0.0289065
0.0285037
0.0281018
0.0276953
0.0272932
0.0269003
0.0265123
0.0261276
0.0257445
0.0253677
0.0249886
0.0246108
0.0242309
0.0238528
0.0234745
0.0230942
0.022716
0.0223357
0.0219546
0.0215738
0.0211912
0.0208131
0.020434
0.0200556
0.019678
0.0193017
0.0189262
0.0185521
0.0181768
0.0178015
0.0174287
0.0170611
0.0166949
0.0163307
0.0159622
0.0155962
0.0152279
0.0148597
0.0144905
0.0141182
0.0137462
0.0133775
0.0130044
0.012631
0.0122606
0.0118912
0.0115224
0.0111508
0.0107854
0.0104172
0.0100488
0.00967805
0.00930339
0.00892554
0.00855531
0.00818623
0.00781665
0.00745325
0.00709656
0.00673537
0.00636983
0.00600741
0.00565033
0.00529373
0.00493573
0.00457454
0.00422146
0.00386439
0.00351193
0.00315563
0.00280856
0.00245272
0.00211127
0.00176211
0.00143303
0.0010918
0.000763053
0.00021674
0.143221
0.126015
0.114591
0.109017
0.104377
0.101272
0.0989816
0.0971941
0.0956646
0.0943708
0.0931572
0.0920901
0.0910779
0.0901
0.0892189
0.0883512
0.087508
0.0866892
0.0858947
0.0851303
0.0843566
0.083598
0.0828655
0.0821472
0.0814209
0.0807055
0.0800076
0.0793121
0.0786262
0.0779348
0.0772586
0.0765857
0.0759199
0.0752518
0.0745882
0.0739328
0.0732809
0.0726301
0.0719849
0.0713381
0.0706977
0.0700625
0.0694266
0.0687977
0.0681666
0.0675418
0.0669192
0.0663008
0.065683
0.0650706
0.0644576
0.0638497
0.063244
0.0626421
0.062041
0.0614443
0.0608487
0.0602558
0.0596685
0.0590827
0.0585022
0.0579229
0.0573496
0.0567755
0.0562051
0.0556349
0.0550665
0.0544962
0.053927
0.0533569
0.0527877
0.0522182
0.0516529
0.0510918
0.0505387
0.0499916
0.0494536
0.0489261
0.0484073
0.0478995
0.0474028
0.046917
0.046441
0.0459733
0.0455131
0.0450618
0.0446105
0.0441631
0.0437201
0.0432778
0.0428365
0.0423986
0.0419608
0.0415219
0.0410819
0.0406436
0.0402035
0.0397621
0.0393217
0.0388778
0.0384346
0.0379912
0.0375487
0.0371057
0.036665
0.0362215
0.035778
0.0353414
0.0349067
0.0344704
0.0340303
0.0335931
0.0331583
0.0327252
0.0322957
0.0318608
0.0314297
0.0310024
0.0305744
0.0301504
0.029731
0.0293208
0.0289096
0.0285064
0.0281042
0.0276974
0.0272953
0.026903
0.0265148
0.0261296
0.0257461
0.0253699
0.0249918
0.0246143
0.0242339
0.0238556
0.0234771
0.0230966
0.0227187
0.0223392
0.0219586
0.0215783
0.0211954
0.0208172
0.0204384
0.0200598
0.019682
0.0193055
0.0189295
0.0185547
0.0181791
0.0178036
0.017431
0.0170638
0.016698
0.0163345
0.0159662
0.0156003
0.0152313
0.0148623
0.0144934
0.0141214
0.0137498
0.0133813
0.0130078
0.0126347
0.0122641
0.0118943
0.0115245
0.0111528
0.0107873
0.010419
0.0100511
0.00968031
0.00930765
0.00892999
0.00855855
0.00818968
0.00781945
0.00745604
0.00709872
0.00673603
0.00637031
0.00600875
0.00565272
0.00529502
0.00493468
0.00457435
0.00422336
0.00386586
0.0035114
0.00315408
0.00280742
0.00245341
0.00211335
0.00176583
0.00143632
0.00110367
0.000777658
0.000216901
0.139673
0.125064
0.114571
0.109175
0.104616
0.101503
0.0991777
0.0973545
0.0957993
0.0944815
0.0932582
0.0921733
0.0911513
0.0901716
0.0892789
0.0884057
0.0875446
0.0867437
0.0859457
0.0851634
0.0843962
0.0836413
0.0829039
0.0821846
0.0814539
0.0807355
0.0800369
0.0793413
0.0786547
0.0779604
0.0772835
0.0766102
0.0759445
0.075275
0.0746107
0.0739564
0.0733051
0.072655
0.0720112
0.0713645
0.0707255
0.0700915
0.0694564
0.0688286
0.0681975
0.0675731
0.066951
0.0663329
0.0657151
0.065103
0.0644895
0.0638814
0.0632758
0.0626736
0.0620723
0.0614755
0.0608794
0.0602861
0.0596986
0.0591125
0.0585316
0.0579517
0.0573781
0.0568033
0.0562325
0.0556619
0.055093
0.0545222
0.0539524
0.0533819
0.0528121
0.0522418
0.0516758
0.051114
0.0505601
0.0500118
0.0494728
0.0489446
0.0484249
0.0479156
0.0474177
0.0469312
0.0464544
0.045986
0.0455248
0.0450728
0.0446211
0.0441727
0.0437292
0.0432864
0.0428447
0.0424066
0.0419685
0.0415296
0.0410894
0.040651
0.0402111
0.0397699
0.0393301
0.0388864
0.0384429
0.0379985
0.0375557
0.0371129
0.0366727
0.0362296
0.0357857
0.0353486
0.0349134
0.034476
0.0340354
0.0335993
0.033165
0.0327324
0.0323035
0.0318672
0.0314348
0.0310086
0.0305795
0.0301547
0.0297348
0.0293237
0.0289133
0.0285091
0.0281067
0.0276992
0.0272968
0.0269056
0.0265166
0.0261308
0.0257475
0.0253718
0.0249949
0.024618