/*--------------------------------*- C++ -*----------------------------------*\
  =========                 |
  \\      /  F ield         | OpenFOAM: The Open Source CFD Toolbox
   \\    /   O peration     | Website:  https://openfoam.org
    \\  /    A nd           | Version:  12
     \\/     M anipulation  |
\*---------------------------------------------------------------------------*/
FoamFile
{
    format      ascii;
    class       surfaceScalarField;
    location    "200";
    object      phi;
}
// * * * * * * * * * * * * * * * * * * * * * * * * * * * * * * * * * * * * * //

dimensions      [0 3 -1 0 0 0 0];

internalField   nonuniform List<scalar> 
39700
(
0.00028905
0.000218412
0.000158809
0.000130241
0.000114184
4.46252e-05
9.67906e-05
1.7394e-05
8.76336e-05
9.15689e-06
8.18551e-05
5.77859e-06
7.80682e-05
3.78705e-06
7.53663e-05
2.70189e-06
7.33147e-05
2.05165e-06
7.16122e-05
1.70248e-06
7.01868e-05
1.42539e-06
6.89809e-05
1.20582e-06
6.79018e-05
1.07915e-06
6.699e-05
9.11747e-07
6.61931e-05
7.96878e-07
6.54755e-05
7.17519e-07
6.4819e-05
6.56427e-07
6.4212e-05
6.06946e-07
6.36476e-05
5.64427e-07
6.31287e-05
5.18815e-07
6.26392e-05
4.89498e-07
6.2177e-05
4.6211e-07
6.174e-05
4.36959e-07
6.13288e-05
4.11228e-07
6.09418e-05
3.86951e-07
6.05687e-05
3.73073e-07
6.02147e-05
3.53961e-07
5.9873e-05
3.41652e-07
5.95477e-05
3.25233e-07
5.92342e-05
3.13503e-07
5.89346e-05
2.99588e-07
5.86439e-05
2.90668e-07
5.83648e-05
2.79055e-07
5.80955e-05
2.69258e-07
5.78344e-05
2.61052e-07
5.75819e-05
2.52473e-07
5.73393e-05
2.42571e-07
5.7103e-05
2.36264e-07
5.68742e-05
2.28738e-07
5.66528e-05
2.21344e-07
5.64367e-05
2.16036e-07
5.62284e-05
2.08281e-07
5.60247e-05
2.0365e-07
5.58284e-05
1.96314e-07
5.56364e-05
1.91908e-07
5.54501e-05
1.86292e-07
5.52676e-05
1.82411e-07
5.50913e-05
1.76289e-07
5.49183e-05
1.72965e-07
5.47511e-05
1.67089e-07
5.45877e-05
1.63417e-07
5.44286e-05
1.59095e-07
5.42725e-05
1.56003e-07
5.4121e-05
1.51502e-07
5.39726e-05
1.48335e-07
5.38279e-05
1.44687e-07
5.36865e-05
1.41301e-07
5.35486e-05
1.37884e-07
5.34151e-05
1.3344e-07
5.32847e-05
1.30465e-07
5.31594e-05
1.25174e-07
5.30374e-05
1.21983e-07
5.29205e-05
1.16752e-07
5.28052e-05
1.15349e-07
5.26921e-05
1.13026e-07
5.25789e-05
1.13052e-07
5.24672e-05
1.11682e-07
5.23536e-05
1.13669e-07
5.22392e-05
1.14126e-07
5.21217e-05
1.17473e-07
5.20015e-05
1.20134e-07
5.18776e-05
1.24152e-07
5.17539e-05
1.23058e-07
5.16286e-05
1.2539e-07
5.15047e-05
1.23614e-07
5.13805e-05
1.24849e-07
5.12565e-05
1.22473e-07
5.11342e-05
1.22156e-07
5.10143e-05
1.19239e-07
5.09e-05
1.15067e-07
5.07901e-05
1.08706e-07
5.0685e-05
1.05464e-07
5.05844e-05
1.00442e-07
5.04879e-05
9.74795e-08
5.03957e-05
9.13896e-08
5.03059e-05
8.99489e-08
5.02144e-05
9.13452e-08
5.01259e-05
8.90949e-08
5.00384e-05
8.72633e-08
4.99529e-05
8.57309e-08
4.98706e-05
8.23652e-08
4.97926e-05
7.85332e-08
4.97146e-05
7.78507e-08
4.96341e-05
8.06317e-08
4.95567e-05
7.74115e-08
4.94813e-05
7.55965e-08
4.94066e-05
7.48518e-08
4.93355e-05
7.11148e-08
4.92627e-05
7.294e-08
4.91877e-05
7.48462e-08
4.91172e-05
7.07688e-08
4.90499e-05
6.71511e-08
4.89865e-05
6.33953e-08
4.89245e-05
6.16731e-08
4.88606e-05
6.40799e-08
4.8797e-05
6.35383e-08
4.87398e-05
5.72793e-08
4.86884e-05
5.13289e-08
4.86355e-05
5.28285e-08
4.85811e-05
5.44334e-08
4.853e-05
5.11757e-08
4.84827e-05
4.755e-08
4.84364e-05
4.57376e-08
4.83894e-05
4.70051e-08
4.83427e-05
4.63291e-08
4.82951e-05
4.79998e-08
4.82547e-05
3.92856e-08
4.82146e-05
3.99534e-08
4.81733e-05
4.07918e-08
4.81366e-05
3.71895e-08
4.80953e-05
4.03198e-08
4.80588e-05
3.68332e-08
4.8024e-05
3.47826e-08
4.79902e-05
3.48086e-08
4.79594e-05
2.9971e-08
4.79269e-05
3.26219e-08
4.78938e-05
3.2984e-08
4.78626e-05
3.20243e-08
4.78333e-05
2.87941e-08
4.78077e-05
2.58373e-08
4.7783e-05
2.49619e-08
4.77606e-05
2.29647e-08
4.77366e-05
2.38202e-08
4.77145e-05
2.20606e-08
4.76924e-05
2.22136e-08
4.76722e-05
2.0385e-08
4.76547e-05
1.76626e-08
4.76386e-05
1.59385e-08
4.76248e-05
1.38442e-08
4.76091e-05
1.54345e-08
4.75925e-05
1.61324e-08
4.75738e-05
1.87466e-08
4.7552e-05
2.16254e-08
4.75302e-05
2.25307e-08
4.75062e-05
2.29284e-08
4.7482e-05
2.43281e-08
4.74566e-05
2.49888e-08
4.74326e-05
2.4877e-08
4.74103e-05
2.15007e-08
4.73876e-05
2.33763e-08
4.73611e-05
2.65411e-08
4.73355e-05
2.70459e-08
4.7309e-05
2.53839e-08
4.72822e-05
2.7005e-08
4.7256e-05
2.61904e-08
4.72298e-05
2.71463e-08
4.72007e-05
2.82111e-08
4.71738e-05
2.67608e-08
4.71451e-05
2.86579e-08
4.71179e-05
2.71925e-08
4.70882e-05
2.99364e-08
4.70561e-05
3.23118e-08
4.70246e-05
3.14631e-08
4.69942e-05
3.05274e-08
4.69612e-05
3.33859e-08
4.69242e-05
3.71979e-08
4.68934e-05
3.10429e-08
4.68697e-05
2.37982e-08
4.68497e-05
2.08707e-08
4.68248e-05
2.50076e-08
4.67948e-05
3.041e-08
4.67601e-05
3.39062e-08
4.67277e-05
3.32999e-08
4.67011e-05
2.6092e-08
4.66701e-05
3.09668e-08
4.66298e-05
3.93554e-08
4.65982e-05
3.17561e-08
4.65651e-05
3.30711e-08
4.65312e-05
3.38275e-08
4.65072e-05
2.39368e-08
4.64847e-05
2.24652e-08
4.6459e-05
2.58108e-08
4.64358e-05
2.32242e-08
4.64143e-05
2.193e-08
4.63863e-05
2.77182e-08
4.63535e-05
3.28644e-08
4.63259e-05
2.74596e-08
4.63009e-05
2.47699e-08
4.62758e-05
2.49974e-08
4.62427e-05
3.32766e-08
4.62146e-05
2.78341e-08
4.61908e-05
2.36822e-08
4.61702e-05
2.06924e-08
4.61409e-05
2.94057e-08
4.61143e-05
2.64776e-08
4.60774e-05
3.63962e-08
4.60584e-05
2.02857e-08
4.60321e-05
2.60461e-08
4.60901e-05
-5.66304e-08
-9.3935e-09
0.000488267
0.000262023
0.000397815
0.000220693
0.000326643
0.000115797
0.00028238
6.1657e-05
0.000254842
3.66946e-05
0.000236499
2.41215e-05
0.000223532
1.67541e-05
0.000213787
1.24469e-05
0.000206139
9.69973e-06
0.000199861
7.98092e-06
0.000194625
6.66142e-06
0.0001902
5.63011e-06
0.000186358
4.92095e-06
0.000183056
4.21386e-06
0.000180168
3.6856e-06
0.000177592
3.29331e-06
0.00017527
2.97811e-06
0.000173164
2.71303e-06
0.000171237
2.49133e-06
0.000169475
2.28036e-06
0.000167843
2.12172e-06
0.000166328
1.97722e-06
0.000164913
1.85159e-06
0.000163596
1.72874e-06
0.000162365
1.61821e-06
0.0001612
1.53812e-06
0.000160101
1.45231e-06
0.000159058
1.38461e-06
0.000158072
1.31168e-06
0.000157133
1.25214e-06
0.00015624
1.1925e-06
0.000155385
1.14561e-06
0.00015457
1.09467e-06
0.000153789
1.04987e-06
0.000153039
1.01084e-06
0.000152319
9.72476e-07
0.000151629
9.32398e-07
0.000150963
9.01922e-07
0.000150323
8.69386e-07
0.000149706
8.38333e-07
0.000149109
8.13066e-07
0.000148534
7.83372e-07
0.000147976
7.60762e-07
0.000147439
7.33443e-07
0.000146918
7.12585e-07
0.000146414
6.90767e-07
0.000145924
6.72602e-07
0.00014545
6.501e-07
0.000144989
6.34162e-07
0.000144543
6.12991e-07
0.000144109
5.96792e-07
0.000143688
5.80254e-07
0.000143278
5.66562e-07
0.000142879
5.49893e-07
0.000142491
5.36586e-07
0.000142113
5.22327e-07
0.000141745
5.08947e-07
0.000141388
4.95127e-07
0.000141042
4.79705e-07
0.000140706
4.66692e-07
0.000140381
4.49705e-07
0.000140067
4.36408e-07
0.000139763
4.201e-07
0.000139466
4.12783e-07
0.000139174
4.04639e-07
0.000138885
4.02633e-07
0.000138598
3.97881e-07
0.00013831
4.01454e-07
0.000138022
4.02827e-07
0.000137729
4.09799e-07
0.000137432
4.17025e-07
0.000137132
4.24516e-07
0.000136832
4.22952e-07
0.000136532
4.25015e-07
0.000136238
4.18324e-07
0.000135946
4.17271e-07
0.000135657
4.10625e-07
0.000135374
4.05902e-07
0.000135099
3.93879e-07
0.000134837
3.78282e-07
0.000134586
3.59233e-07
0.000134345
3.46747e-07
0.000134115
3.30527e-07
0.000133895
3.19417e-07
0.000133684
3.01461e-07
0.000133479
2.96101e-07
0.000133273
2.97448e-07
0.000133072
2.90556e-07
0.000132875
2.85332e-07
0.00013268
2.80245e-07
0.000132493
2.70381e-07
0.000132313
2.58542e-07
0.000132134
2.57126e-07
0.000131952
2.63114e-07
0.000131775
2.5401e-07
0.000131602
2.48979e-07
0.000131432
2.45624e-07
0.000131268
2.3518e-07
0.000131102
2.39106e-07
0.000130933
2.43539e-07
0.000130771
2.32425e-07
0.000130617
2.21563e-07
0.00013047
2.10327e-07
0.000130326
2.05437e-07
0.000130179
2.10469e-07
0.000130035
2.07741e-07
0.000129903
1.89499e-07
0.000129783
1.71126e-07
0.00012966
1.75471e-07
0.000129535
1.80031e-07
0.000129416
1.6967e-07
0.000129305
1.59174e-07
0.000129196
1.53805e-07
0.000129088
1.55354e-07
0.000128979
1.5502e-07
0.000128871
1.55632e-07
0.000128774
1.35801e-07
0.000128677
1.36684e-07
0.000128581
1.3653e-07
0.000128492
1.26638e-07
0.0001284
1.31549e-07
0.000128316
1.21162e-07
0.000128235
1.15103e-07
0.000128156
1.14203e-07
0.000128081
1.0466e-07
0.000128005
1.09396e-07
0.000127929
1.08986e-07
0.000127857
1.04499e-07
0.00012779
9.56095e-08
0.000127729
8.68688e-08
0.000127672
8.28574e-08
0.000127616
7.86011e-08
0.00012756
8.0127e-08
0.000127505
7.67798e-08
0.000127451
7.66854e-08
0.0001274
7.07474e-08
0.000127353
6.4826e-08
0.000127308
5.95979e-08
0.000127268
5.39412e-08
0.000127225
5.80014e-08
0.00012718
6.03592e-08
0.000127132
6.65019e-08
0.000127081
7.33562e-08
0.000127027
7.68522e-08
0.00012697
7.92554e-08
0.000126912
8.21609e-08
0.000126853
8.35923e-08
0.000126797
8.1551e-08
0.000126745
7.37257e-08
0.00012669
7.8706e-08
0.00012663
8.74127e-08
0.000126571
8.6837e-08
0.000126512
8.47084e-08
0.00012645
8.88474e-08
0.00012639
8.65268e-08
0.000126328
8.98114e-08
0.000126263
9.28253e-08
0.000126201
8.97327e-08
0.000126135
9.40796e-08
0.000126071
9.17384e-08
0.000126002
9.88947e-08
0.000125929
1.04883e-07
0.000125859
1.02267e-07
0.000125788
1.00382e-07
0.000125713
1.09077e-07
0.000125632
1.17956e-07
0.000125561
1.01577e-07
0.000125504
8.16621e-08
0.000125451
7.41727e-08
0.000125393
8.33352e-08
0.000125328
9.59434e-08
0.000125253
1.08503e-07
0.000125179
1.07439e-07
0.000125116
8.895e-08
0.000125043
1.04849e-07
0.000124958
1.24244e-07
0.000124886
1.03538e-07
0.000124811
1.08238e-07
0.00012474
1.05921e-07
0.000124685
7.89617e-08
0.000124631
7.64796e-08
0.000124573
8.38369e-08
0.00012452
7.64713e-08
0.000124469
7.2447e-08
0.000124408
8.90483e-08
0.00012434
1.00559e-07
0.000124279
8.90511e-08
0.000124224
7.97456e-08
0.000124165
8.33828e-08
0.000124095
1.03498e-07
0.000124031
9.19964e-08
0.000123977
7.80922e-08
0.000123923
7.47377e-08
0.000123859
9.39526e-08
0.000123793
9.26427e-08
0.000123718
1.11139e-07
0.00012366
7.97184e-08
0.000123611
7.50657e-08
0.000123687
-1.32897e-07
-3.68423e-08
0.000561759
0.000257731
0.000533663
0.000248789
0.000488963
0.000160497
0.000442265
0.000108356
0.000405037
7.39225e-05
0.000376231
5.2927e-05
0.000353832
3.91534e-05
0.000336083
3.01956e-05
0.000321769
2.40141e-05
0.000309974
1.97762e-05
0.000300113
1.65228e-05
0.000291763
1.39795e-05
0.000284584
1.20998e-05
0.000278362
1.04365e-05
0.000272907
9.1399e-06
0.000268063
8.13772e-06
0.00026373
7.3109e-06
0.00025983
6.61298e-06
0.000256289
6.03224e-06
0.000253066
5.50328e-06
0.000250107
5.08051e-06
0.000247383
4.70178e-06
0.000244858
4.37587e-06
0.00024252
4.06732e-06
0.000240345
3.79339e-06
0.000238305
3.57767e-06
0.000236393
3.36387e-06
0.000234593
3.18544e-06
0.000232898
3.00583e-06
0.000231296
2.8542e-06
0.000229779
2.70979e-06
0.000228337
2.58754e-06
0.000226968
2.46377e-06
0.000225664
2.35362e-06
0.00022442
2.2555e-06
0.00022323
2.16236e-06
0.000222093
2.06913e-06
0.000221002
1.99244e-06
0.000219957
1.9146e-06
0.000218954
1.84118e-06
0.000217989
1.77871e-06
0.000217061
1.71116e-06
0.000216166
1.65524e-06
0.000215306
1.59416e-06
0.000214475
1.54345e-06
0.000213672
1.4932e-06
0.000212896
1.44909e-06
0.000212146
1.39935e-06
0.00021142
1.36034e-06
0.000210719
1.31423e-06
0.00021004
1.27608e-06
0.000209381
1.23875e-06
0.000208742
1.20595e-06
0.000208122
1.16935e-06
0.00020752
1.13841e-06
0.000206936
1.10626e-06
0.00020637
1.0758e-06
0.00020582
1.04476e-06
0.000205287
1.01216e-06
0.000204772
9.82459e-07
0.000204273
9.48062e-07
0.000203791
9.18792e-07
0.000203324
8.86554e-07
0.000202869
8.68466e-07
0.000202423
8.50265e-07
0.000201983
8.42816e-07
0.000201549
8.31827e-07
0.000201116
8.34146e-07
0.000200685
8.34047e-07
0.000200253
8.4169e-07
0.000199819
8.50905e-07
0.000199385
8.58504e-07
0.000198954
8.54184e-07
0.000198527
8.51556e-07
0.00019811
8.35584e-07
0.0001977
8.26776e-07
0.000197299
8.11152e-07
0.000196907
7.97167e-07
0.00019653
7.70536e-07
0.00019617
7.3836e-07
0.000195827
7.01761e-07
0.000195498
6.75701e-07
0.000195184
6.44224e-07
0.000194882
6.21492e-07
0.000194595
5.88128e-07
0.000194315
5.76108e-07
0.000194037
5.74412e-07
0.000193767
5.61232e-07
0.0001935
5.51675e-07
0.000193238
5.42238e-07
0.000192984
5.25141e-07
0.000192738
5.04517e-07
0.000192494
5.00989e-07
0.000192248
5.08482e-07
0.000192009
4.92967e-07
0.000191774
4.84556e-07
0.000191542
4.77805e-07
0.000191317
4.5953e-07
0.000191093
4.63667e-07
0.000190866
4.69919e-07
0.000190647
4.51805e-07
0.000190436
4.32639e-07
0.000190234
4.12733e-07
0.000190036
4.03427e-07
0.000189837
4.08943e-07
0.000189642
4.02697e-07
0.00018946
3.71556e-07
0.000189293
3.38218e-07
0.000189124
3.4465e-07
0.000188952
3.52199e-07
0.000188788
3.33546e-07
0.000188632
3.14995e-07
0.000188482
3.044e-07
0.000188332
3.052e-07
0.000188181
3.05359e-07
0.000188034
3.0352e-07
0.000187897
2.72384e-07
0.000187761
2.72551e-07
0.000187627
2.69683e-07
0.000187502
2.52301e-07
0.000187376
2.56833e-07
0.000187259
2.38015e-07
0.000187148
2.26725e-07
0.000187038
2.24472e-07
0.000186932
2.09818e-07
0.000186826
2.15407e-07
0.000186722
2.13307e-07
0.000186623
2.03902e-07
0.000186529
1.88806e-07
0.000186443
1.7349e-07
0.00018636
1.65316e-07
0.00018628
1.58972e-07
0.0001862
1.60734e-07
0.00018612
1.56776e-07
0.00018604
1.56423e-07
0.000185965
1.46493e-07
0.000185892
1.37772e-07
0.000185823
1.28171e-07
0.000185759
1.18286e-07
0.000185693
1.24072e-07
0.000185626
1.27664e-07
0.000185556
1.36637e-07
0.000185482
1.46644e-07
0.000185406
1.5324e-07
0.000185328
1.57228e-07
0.000185249
1.60981e-07
0.000185169
1.62741e-07
0.000185093
1.58341e-07
0.00018502
1.46352e-07
0.000184944
1.54537e-07
0.000184863
1.68436e-07
0.000184784
1.6706e-07
0.000184702
1.65241e-07
0.000184619
1.71799e-07
0.000184537
1.68431e-07
0.000184453
1.74905e-07
0.000184366
1.79051e-07
0.000184281
1.74303e-07
0.000184193
1.81462e-07
0.000184105
1.80084e-07
0.000184012
1.91957e-07
0.000183916
2.00979e-07
0.000183822
1.96195e-07
0.000183729
1.94221e-07
0.000183629
2.0905e-07
0.000183526
2.21549e-07
0.000183431
1.96226e-07
0.000183348
1.65215e-07
0.000183269
1.52863e-07
0.000183188
1.64468e-07
0.000183103
1.81029e-07
0.000183008
2.0348e-07
0.000182912
2.04161e-07
0.000182825
1.75075e-07
0.000182727
2.02563e-07
0.000182621
2.30277e-07
0.000182527
1.96628e-07
0.000182431
2.04978e-07
0.000182339
1.97512e-07
0.000182264
1.53994e-07
0.000182189
1.5131e-07
0.000182112
1.61095e-07
0.00018204
1.48289e-07
0.000181971
1.41084e-07
0.000181892
1.68173e-07
0.000181808
1.84353e-07
0.000181729
1.67892e-07
0.000181657
1.51528e-07
0.00018158
1.60406e-07
0.000181492
1.91802e-07
0.000181407
1.7725e-07
0.000181332
1.529e-07
0.000181254
1.5198e-07
0.000181168
1.80084e-07
0.000181077
1.83224e-07
0.000180981
2.06754e-07
0.000180897
1.64569e-07
0.000180832
1.39669e-07
0.000180899
-1.98547e-07
-6.35608e-08
0.000603276
0.000238745
0.000602015
0.00025005
0.000586365
0.000176147
0.000559305
0.000135416
0.000528241
0.000104986
0.000498895
8.22732e-05
0.000472625
6.54231e-05
0.000449712
5.3108e-05
0.000430062
4.36647e-05
0.000413275
3.65633e-05
0.000398903
3.08943e-05
0.000386518
2.63647e-05
0.000375769
2.28484e-05
0.000366358
1.98476e-05
0.000358058
1.74402e-05
0.000350681
1.55149e-05
0.000344093
1.38989e-05
0.00033817
1.25356e-05
0.000332808
1.13944e-05
0.000327936
1.03753e-05
0.000323482
9.53443e-06
0.000319395
8.78853e-06
0.000315624
8.14694e-06
0.00031214
7.55184e-06
0.000308906
7.02687e-06
0.000305889
6.59531e-06
0.000303071
6.18169e-06
0.000300427
5.82894e-06
0.000297948
5.48488e-06
0.000295612
5.19014e-06
0.000293407
4.91538e-06
0.000291319
4.67484e-06
0.000289343
4.43972e-06
0.000287467
4.22937e-06
0.000285684
4.03943e-06
0.000283983
3.86306e-06
0.000282361
3.69053e-06
0.000280812
3.54214e-06
0.00027933
3.39596e-06
0.000277912
3.25899e-06
0.000276551
3.13977e-06
0.000275246
3.0161e-06
0.000273992
2.90975e-06
0.000272787
2.79932e-06
0.000271626
2.70391e-06
0.000270508
2.61115e-06
0.000269429
2.52806e-06
0.00026839
2.4389e-06
0.000267385
2.36521e-06
0.000266415
2.28338e-06
0.000265479
2.213e-06
0.000264572
2.1452e-06
0.000263694
2.08383e-06
0.000262845
2.01868e-06
0.000262021
1.96182e-06
0.000261224
1.90375e-06
0.000260451
1.84851e-06
0.000259703
1.79298e-06
0.000258979
1.73648e-06
0.000258278
1.68326e-06
0.0002576
1.62539e-06
0.000256945
1.57432e-06
0.000256311
1.52085e-06
0.000255692
1.48662e-06
0.000255089
1.45326e-06
0.000254496
1.43594e-06
0.000253913
1.41465e-06
0.000253336
1.41161e-06
0.000252764
1.40627e-06
0.000252195
1.41022e-06
0.000251629
1.41682e-06
0.000251068
1.41977e-06
0.000250513
1.40926e-06
0.000249968
1.39677e-06
0.000249437
1.36638e-06
0.00024892
1.344e-06
0.000248417
1.31414e-06
0.000247929
1.28556e-06
0.00024746
1.23933e-06
0.000247013
1.186e-06
0.000246587
1.12764e-06
0.000246179
1.08365e-06
0.000245791
1.03322e-06
0.000245418
9.95462e-07
0.000245061
9.44467e-07
0.000244715
9.23109e-07
0.000244375
9.14923e-07
0.000244043
8.93427e-07
0.000243716
8.78855e-07
0.000243394
8.64097e-07
0.000243081
8.39355e-07
0.000242775
8.10111e-07
0.000242473
8.03454e-07
0.000242172
8.09708e-07
0.000241878
7.87152e-07
0.000241587
7.75486e-07
0.0002413
7.64801e-07
0.000241021
7.38357e-07
0.000240744
7.40916e-07
0.000240467
7.47335e-07
0.000240197
7.22115e-07
0.000239935
6.94386e-07
0.000239682
6.65232e-07
0.000239435
6.50793e-07
0.000239189
6.54423e-07
0.000238949
6.42488e-07
0.000238723
5.98022e-07
0.000238511
5.49574e-07
0.000238299
5.57127e-07
0.000238085
5.65855e-07
0.00023788
5.3832e-07
0.000237684
5.11446e-07
0.000237493
4.94691e-07
0.000237304
4.93871e-07
0.000237116
4.93137e-07
0.000236933
4.87214e-07
0.000236759
4.45205e-07
0.000236588
4.43679e-07
0.000236421
4.3714e-07
0.000236262
4.11454e-07
0.000236105
4.13536e-07
0.000235958
3.84592e-07
0.000235818
3.67182e-07
0.00023568
3.62667e-07
0.000235546
3.43144e-07
0.000235414
3.48313e-07
0.000235284
3.43554e-07
0.00023516
3.2848e-07
0.000235042
3.06539e-07
0.000234931
2.84344e-07
0.000234825
2.71459e-07
0.000234721
2.62871e-07
0.000234617
2.64783e-07
0.000234513
2.60194e-07
0.00023441
2.59645e-07
0.00023431
2.45872e-07
0.000234213
2.34458e-07
0.000234122
2.1952e-07
0.000234035
2.04804e-07
0.000233947
2.1123e-07
0.000233859
2.15488e-07
0.000233769
2.2651e-07
0.000233677
2.38528e-07
0.000233583
2.47814e-07
0.000233487
2.53251e-07
0.000233391
2.5718e-07
0.000233294
2.58972e-07
0.000233201
2.52437e-07
0.00023311
2.37303e-07
0.000233016
2.48994e-07
0.000232917
2.67556e-07
0.000232819
2.65699e-07
0.000232719
2.65248e-07
0.000232618
2.73494e-07
0.000232517
2.69763e-07
0.000232413
2.79458e-07
0.000232307
2.84418e-07
0.000232204
2.77599e-07
0.000232098
2.87684e-07
0.000231989
2.88765e-07
0.000231877
3.04874e-07
0.000231762
3.15646e-07
0.00023165
3.08306e-07
0.000231537
3.06839e-07
0.000231418
3.27474e-07
0.000231298
3.41444e-07
0.000231185
3.09161e-07
0.000231079
2.71041e-07
0.000230978
2.54652e-07
0.000230876
2.67173e-07
0.000230773
2.83357e-07
0.000230663
3.14029e-07
0.000230549
3.17941e-07
0.000230443
2.81112e-07
0.000230325
3.20602e-07
0.000230203
3.52971e-07
0.000230092
3.07359e-07
0.000229978
3.19264e-07
0.000229872
3.04418e-07
0.000229779
2.46966e-07
0.000229686
2.44589e-07
0.000229592
2.54443e-07
0.000229505
2.36083e-07
0.000229419
2.266e-07
0.000229325
2.62913e-07
0.000229229
2.79973e-07
0.000229138
2.59154e-07
0.000229051
2.37897e-07
0.000228958
2.5349e-07
0.000228856
2.94081e-07
0.000228754
2.79007e-07
0.000228661
2.46195e-07
0.000228563
2.50726e-07
0.000228457
2.86609e-07
0.000228345
2.95317e-07
0.00022823
3.21681e-07
0.000228127
2.68625e-07
0.000228044
2.22221e-07
0.000228091
-2.45115e-07
-8.06393e-08
0.000634307
0.000216839
0.000644051
0.000240307
0.000640937
0.000179261
0.000631423
0.00014493
0.000614915
0.000121493
0.000594929
0.00010226
0.000573636
8.67166e-05
0.000552233
7.45104e-05
0.000531719
6.41795e-05
0.000512663
5.56183e-05
0.000495365
4.81924e-05
0.000479818
4.19123e-05
0.000465928
3.67381e-05
0.000453529
3.22468e-05
0.000442434
2.85345e-05
0.000432484
2.54651e-05
0.000423549
2.28339e-05
0.000415481
2.06035e-05
0.000408157
1.87184e-05
0.000401494
1.70387e-05
0.000395403
1.56253e-05
0.000389812
1.4379e-05
0.000384659
1.33e-05
0.000379899
1.23121e-05
0.000375485
1.14407e-05
0.000371376
1.07048e-05
0.000367545
1.0012e-05
0.00036396
9.4142e-06
0.000360604
8.84127e-06
0.000357447
8.34631e-06
0.000354474
7.88922e-06
0.000351666
7.48232e-06
0.000349013
7.09254e-06
0.0003465
6.74254e-06
0.000344116
6.42393e-06
0.000341847
6.1318e-06
0.000339687
5.85008e-06
0.000337628
5.60138e-06
0.000335663
5.36072e-06
0.000333786
5.13627e-06
0.000331988
4.93808e-06
0.000330266
4.73737e-06
0.000328615
4.5614e-06
0.00032703
4.38403e-06
0.000325507
4.22711e-06
0.000324042
4.07574e-06
0.000322631
3.93901e-06
0.000321273
3.79667e-06
0.000319963
3.67521e-06
0.000318701
3.54549e-06
0.000317483
3.43147e-06
0.000316306
3.32221e-06
0.000315168
3.22161e-06
0.000314068
3.11827e-06
0.000313004
3.02609e-06
0.000311975
2.93315e-06
0.000310978
2.84446e-06
0.000310015
2.7565e-06
0.000309083
2.66865e-06
0.000308181
2.58456e-06
0.00030731
2.49644e-06
0.000306467
2.41728e-06
0.000305652
2.33667e-06
0.000304858
2.28024e-06
0.000304085
2.22567e-06
0.000303328
2.19313e-06
0.000302587
2.15634e-06
0.000301855
2.14278e-06
0.000301135
2.12667e-06
0.000300424
2.12146e-06
0.000299721
2.11953e-06
0.000299029
2.1118e-06
0.000298348
2.09023e-06
0.000297682
2.06187e-06
0.000297037
2.01116e-06
0.000296413
1.96897e-06
0.000295808
1.91819e-06
0.000295224
1.86911e-06
0.000294665
1.79817e-06
0.000294131
1.71961e-06
0.000293623
1.63518e-06
0.000293137
1.56904e-06
0.000292674
1.49574e-06
0.000292231
1.43952e-06
0.000291806
1.3687e-06
0.000291393
1.33557e-06
0.000290991
1.31716e-06
0.000290599
1.28557e-06
0.000290212
1.26508e-06
0.000289832
1.24406e-06
0.00028946
1.21146e-06
0.000289096
1.17454e-06
0.000288735
1.16398e-06
0.000288379
1.16591e-06
0.00028803
1.13573e-06
0.000287684
1.12118e-06
0.000287344
1.10571e-06
0.00028701
1.07147e-06
0.00028668
1.07119e-06
0.000286352
1.07561e-06
0.000286031
1.04305e-06
0.000285719
1.00669e-06
0.000285416
9.68208e-07
0.000285118
9.48495e-07
0.000284825
9.47582e-07
0.00028454
9.2698e-07
0.000284269
8.69017e-07
0.000284012
8.06587e-07
0.000283755
8.14348e-07
0.0002835
8.21534e-07
0.000283253
7.84694e-07
0.000283015
7.49977e-07
0.000282783
7.264e-07
0.000282554
7.23119e-07
0.000282328
7.19e-07
0.000282108
7.07063e-07
0.000281899
6.54037e-07
0.000281692
6.50171e-07
0.00028149
6.38961e-07
0.000281297
6.04493e-07
0.000281108
6.02185e-07
0.000280932
5.61154e-07
0.000280762
5.36999e-07
0.000280596
5.29583e-07
0.000280434
5.04357e-07
0.000280275
5.07824e-07
0.000280119
4.9932e-07
0.00027997
4.77756e-07
0.000279827
4.48766e-07
0.000279692
4.19918e-07
0.000279561
4.02297e-07
0.000279433
3.91398e-07
0.000279305
3.92933e-07
0.000279177
3.87907e-07
0.00027905
3.86987e-07
0.000278926
3.69793e-07
0.000278805
3.55522e-07
0.00027869
3.34737e-07
0.00027858
3.14994e-07
0.000278472
3.19552e-07
0.000278364
3.23229e-07
0.000278255
3.35908e-07
0.000278145
3.48506e-07
0.000278033
3.59447e-07
0.000277921
3.65263e-07
0.000277809
3.68922e-07
0.000277697
3.70407e-07
0.000277588
3.62121e-07
0.00027748
3.45132e-07
0.000277368
3.60757e-07
0.000277253
3.82552e-07
0.000277139
3.80692e-07
0.000277021
3.8252e-07
0.000276902
3.92139e-07
0.000276783
3.88917e-07
0.000276661
4.0156e-07
0.000276538
4.06245e-07
0.000276418
3.97948e-07
0.000276294
4.11428e-07
0.000276166
4.16102e-07
0.000276036
4.35832e-07
0.000275904
4.47198e-07
0.000275775
4.37566e-07
0.000275644
4.37451e-07
0.000275509
4.63193e-07
0.000275375
4.75838e-07
0.000275246
4.38393e-07
0.00027512
3.97237e-07
0.000274997
3.77793e-07
0.000274873
3.90611e-07
0.000274754
4.02924e-07
0.000274629
4.38826e-07
0.000274501
4.45909e-07
0.000274377
4.04677e-07
0.000274241
4.5644e-07
0.000274105
4.8874e-07
0.000273979
4.33459e-07
0.000273849
4.48645e-07
0.000273729
4.24259e-07
0.000273619
3.56684e-07
0.000273509
3.55224e-07
0.0002734
3.62583e-07
0.000273297
3.39381e-07
0.000273194
3.29777e-07
0.000273084
3.73198e-07
0.000272977
3.86561e-07
0.000272874
3.61838e-07
0.000272773
3.38722e-07
0.000272665
3.62103e-07
0.00027255
4.08457e-07
0.000272434
3.94649e-07
0.000272323
3.57126e-07
0.000272204
3.69935e-07
0.000272078
4.12212e-07
0.000271946
4.27087e-07
0.000271814
4.53245e-07
0.0002717
3.83497e-07
0.000271598
3.2386e-07
0.000271615
-2.61074e-07
-7.92705e-08
0.000662834
0.000195872
0.000676973
0.000226167
0.000678737
0.000177497
0.00067681
0.000146858
0.000670872
0.00012743
0.0006614
0.000111732
0.000649248
9.88686e-05
0.000634975
8.8783e-05
0.000619285
7.98695e-05
0.000602804
7.2099e-05
0.000586252
6.47446e-05
0.000570145
5.80196e-05
0.000554859
5.20245e-05
0.000540613
4.64923e-05
0.000527456
4.16917e-05
0.000515369
3.75516e-05
0.000504324
3.38791e-05
0.000494225
3.0703e-05
0.000484969
2.79739e-05
0.000476491
2.55172e-05
0.000468705
2.3411e-05
0.000461532
2.1552e-05
0.000454905
1.9927e-05
0.000448771
1.84457e-05
0.000443081
1.71312e-05
0.000437782
1.60034e-05
0.000432842
1.4952e-05
0.000428221
1.40353e-05
0.000423896
1.31662e-05
0.000419832
1.24105e-05
0.000416007
1.17144e-05
0.0004124
1.10894e-05
0.000408994
1.04981e-05
0.000405771
9.96518e-06
0.000402718
9.47775e-06
0.000399816
9.03353e-06
0.000397057
8.60915e-06
0.000394429
8.22881e-06
0.000391925
7.86455e-06
0.000389536
7.52592e-06
0.00038725
7.22372e-06
0.000385065
6.92245e-06
0.000382971
6.65546e-06
0.000380964
6.39111e-06
0.000379037
6.15378e-06
0.000377187
5.92575e-06
0.000375407
5.71887e-06
0.000373696
5.50781e-06
0.000372047
5.32385e-06
0.00037046
5.13257e-06
0.000368929
4.9621e-06
0.000367453
4.79883e-06
0.000366027
4.64723e-06
0.000364651
4.49486e-06
0.00036332
4.35661e-06
0.000362034
4.21876e-06
0.000360792
4.08702e-06
0.00035959
3.95779e-06
0.000358429
3.83025e-06
0.000357306
3.70722e-06
0.000356221
3.58138e-06
0.000355171
3.46714e-06
0.000354155
3.35267e-06
0.000353168
3.26715e-06
0.00035221
3.18434e-06
0.000351273
3.13008e-06
0.000350358
3.07117e-06
0.00034946
3.04087e-06
0.000348579
3.00738e-06
0.000347714
2.98631e-06
0.000346865
2.96884e-06
0.000346033
2.943e-06
0.000345219
2.90471e-06
0.000344427
2.85372e-06
0.000343662
2.77625e-06
0.000342924
2.70762e-06
0.000342212
2.62909e-06
0.000341529
2.55312e-06
0.000340875
2.45221e-06
0.000340251
2.34411e-06
0.000339657
2.22956e-06
0.00033909
2.13646e-06
0.00033855
2.0361e-06
0.000338032
1.95755e-06
0.000337536
1.86529e-06
0.000337054
1.81761e-06
0.000336587
1.78481e-06
0.000336132
1.74106e-06
0.000335684
1.71346e-06
0.000335244
1.68457e-06
0.000334812
1.64381e-06
0.000334386
1.60031e-06
0.000333965
1.58536e-06
0.000333552
1.57946e-06
0.000333147
1.54108e-06
0.000332744
1.52371e-06
0.000332348
1.50234e-06
0.000331958
1.46126e-06
0.000331572
1.4569e-06
0.000331191
1.45668e-06
0.000330818
1.41639e-06
0.000330453
1.37157e-06
0.000330097
1.32384e-06
0.000329746
1.29905e-06
0.000329403
1.2906e-06
0.000329072
1.25783e-06
0.000328755
1.18665e-06
0.000328449
1.11245e-06
0.000328144
1.11888e-06
0.000327845
1.12051e-06
0.000327555
1.07446e-06
0.000327272
1.03301e-06
0.000326996
1.00249e-06
0.000326723
9.95468e-07
0.000326458
9.84149e-07
0.000326201
9.64018e-07
0.000325954
9.00875e-07
0.00032571
8.9403e-07
0.000325471
8.77422e-07
0.000325242
8.33771e-07
0.00032502
8.24639e-07
0.000324812
7.69193e-07
0.000324611
7.37838e-07
0.000324414
7.26446e-07
0.000324223
6.95556e-07
0.000324035
6.95687e-07
0.000323853
6.82189e-07
0.000323677
6.535e-07
0.000323509
6.16888e-07
0.000323348
5.81618e-07
0.000323191
5.59273e-07
0.000323037
5.45713e-07
0.000322883
5.46381e-07
0.00032273
5.40355e-07
0.000322578
5.38848e-07
0.00032243
5.18024e-07
0.000322284
5.00566e-07
0.000322145
4.73744e-07
0.000322011
4.48509e-07
0.000321881
4.48843e-07
0.000321754
4.50746e-07
0.000321625
4.64447e-07
0.000321497
4.76583e-07
0.000321369
4.87857e-07
0.00032124
4.93233e-07
0.000321114
4.9604e-07
0.000320987
4.96853e-07
0.000320862
4.876e-07
0.000320737
4.70468e-07
0.000320608
4.90231e-07
0.000320477
5.13938e-07
0.000320346
5.12498e-07
0.000320211
5.17961e-07
0.000320075
5.28091e-07
0.000319938
5.25792e-07
0.0003198
5.40489e-07
0.000319661
5.44934e-07
0.000319523
5.3606e-07
0.000319382
5.52923e-07
0.000319237
5.61425e-07
0.000319089
5.83427e-07
0.000318942
5.94389e-07
0.000318796
5.83088e-07
0.000318648
5.8474e-07
0.000318497
6.14405e-07
0.000318349
6.23055e-07
0.000318205
5.82849e-07
0.00031806
5.42566e-07
0.000317916
5.21179e-07
0.000317772
5.34932e-07
0.000317636
5.3972e-07
0.000317497
5.77138e-07
0.000317356
5.87081e-07
0.000317215
5.45978e-07
0.000317062
6.10212e-07
0.000316913
6.37666e-07
0.000316771
5.75378e-07
0.000316627
5.93237e-07
0.000316494
5.5729e-07
0.000316367
4.84088e-07
0.000316239
4.83028e-07
0.000316117
4.85293e-07
0.000315997
4.59146e-07
0.000315875
4.52096e-07
0.000315748
4.99859e-07
0.00031563
5.04179e-07
0.000315516
4.76574e-07
0.000315399
4.55546e-07
0.000315274
4.86732e-07
0.000315148
5.34796e-07
0.000315018
5.24469e-07
0.000314889
4.87132e-07
0.000314749
5.10379e-07
0.000314603
5.57916e-07
0.000314452
5.79012e-07
0.000314303
6.01789e-07
0.000314176
5.11845e-07
0.000314065
4.34727e-07
0.000314048
-2.44228e-07
-4.73609e-08
0.000692312
0.000176307
0.000707616
0.000210863
0.000712071
0.000173042
0.000712616
0.000146313
0.000711319
0.000128728
0.000708073
0.000114978
0.000702735
0.000104206
0.000695584
9.59346e-05
0.000686733
8.872e-05
0.000676232
8.26003e-05
0.000664375
7.66019e-05
0.000651507
7.08867e-05
0.000638053
6.54789e-05
0.000624474
6.00709e-05
0.000611117
5.50485e-05
0.000598228
5.04405e-05
0.000585993
4.61142e-05
0.000574485
4.22118e-05
0.000563711
3.87472e-05
0.000553677
3.55511e-05
0.000544349
3.27393e-05
0.000535675
3.02258e-05
0.000527604
2.79978e-05
0.000520092
2.59576e-05
0.000513096
2.41274e-05
0.000506563
2.25368e-05
0.000500455
2.10597e-05
0.000494732
1.97582e-05
0.000489367
1.85309e-05
0.000484323
1.74545e-05
0.000479575
1.6463e-05
0.000475095
1.55693e-05
0.000470865
1.47282e-05
0.000466863
1.39672e-05
0.000463071
1.32693e-05
0.00045947
1.26344e-05