/*--------------------------------*- C++ -*----------------------------------*\
  =========                 |
  \\      /  F ield         | OpenFOAM: The Open Source CFD Toolbox
   \\    /   O peration     | Website:  https://openfoam.org
    \\  /    A nd           | Version:  12
     \\/     M anipulation  |
\*---------------------------------------------------------------------------*/
FoamFile
{
    format      ascii;
    class       volScalarField;
    location    "400";
    object      p;
}
// * * * * * * * * * * * * * * * * * * * * * * * * * * * * * * * * * * * * * //

dimensions      [0 2 -2 0 0 0 0];

internalField   nonuniform List<scalar> 
20000
(
0.26003
0.138762
0.112454
0.110576
0.108215
0.106195
0.104838
0.103667
0.102615
0.101585
0.100591
0.0996487
0.0987401
0.0978771
0.097052
0.096254
0.0954751
0.0947003
0.0939399
0.093202
0.0924698
0.0917445
0.0910314
0.0903268
0.0896327
0.0889405
0.0882576
0.0875772
0.0869054
0.0862344
0.085572
0.0849112
0.0842557
0.0836033
0.0829543
0.0823092
0.0816693
0.0810312
0.0803966
0.0797651
0.0791357
0.0785112
0.0778876
0.0772688
0.0766506
0.0760366
0.0754238
0.0748154
0.0742076
0.073604
0.0730016
0.0724024
0.0718049
0.0712102
0.0706175
0.0700274
0.0694392
0.0688529
0.0682694
0.0676875
0.0671081
0.0665304
0.0659548
0.0653812
0.0648092
0.0642396
0.0636716
0.0631059
0.0625415
0.0619794
0.0614187
0.0608598
0.0603027
0.0597474
0.0591937
0.0586418
0.0580915
0.0575428
0.0569958
0.05645
0.0559062
0.0553636
0.054823
0.0542834
0.0537457
0.0532091
0.0526743
0.0521406
0.0516085
0.0510776
0.0505485
0.0500203
0.0494939
0.0489684
0.0484447
0.0479218
0.0474006
0.0468803
0.0463616
0.0458439
0.0453277
0.0448125
0.0442987
0.0437859
0.0432745
0.0427641
0.0422549
0.0417469
0.04124
0.0407343
0.0402296
0.0397262
0.0392237
0.0387225
0.0382222
0.0377232
0.037225
0.0367282
0.0362322
0.0357374
0.0352436
0.0347511
0.0342595
0.0337691
0.0332797
0.0327916
0.0323044
0.0318184
0.0313334
0.0308494
0.0303664
0.0298842
0.029403
0.0289224
0.0284427
0.0279635
0.0274851
0.0270072
0.02653
0.0260532
0.0255772
0.0251016
0.0246269
0.0241528
0.0236797
0.0232075
0.0227362
0.0222661
0.021797
0.0213292
0.0208629
0.0203981
0.0199349
0.0194736
0.0190136
0.0185555
0.0180992
0.0176455
0.0171937
0.0167439
0.0162959
0.0158503
0.0154061
0.0149642
0.014524
0.0140862
0.0136495
0.0132152
0.0127822
0.0123519
0.0119227
0.0114957
0.0110701
0.0106464
0.0102241
0.0098037
0.00938452
0.00896782
0.00855247
0.0081389
0.0077271
0.00731678
0.00690871
0.00650113
0.006097
0.00569293
0.0052928
0.00489122
0.00449555
0.00409636
0.003706
0.00330843
0.00292392
0.00252745
0.00214943
0.00175303
0.00138109
0.000975894
0.000614566
0.000159684
0.223615
0.136768
0.113124
0.11103
0.10848
0.106375
0.104979
0.103782
0.10271
0.101665
0.10066
0.0997084
0.098792
0.0979236
0.0970934
0.0962913
0.0955088
0.0947309
0.0939681
0.0932279
0.0924937
0.0917667
0.091052
0.0903461
0.0896507
0.0889575
0.0882736
0.0875923
0.0869196
0.0862479
0.0855848
0.0849233
0.0842673
0.0836143
0.0829649
0.0823193
0.081679
0.0810405
0.0804056
0.0797737
0.079144
0.0785192
0.0778953
0.0772762
0.0766578
0.0760436
0.0754306
0.0748219
0.0742139
0.0736101
0.0730075
0.0724081
0.0718105
0.0712157
0.0706228
0.0700325
0.0694442
0.0688578
0.0682741
0.0676921
0.0671126
0.0665348
0.0659591
0.0653854
0.0648133
0.0642436
0.0636755
0.0631097
0.0625453
0.061983
0.0614222
0.0608633
0.0603061
0.0597508
0.059197
0.058645
0.0580947
0.0575459
0.0569988
0.0564529
0.0559091
0.0553665
0.0548258
0.0542861
0.0537484
0.0532117
0.0526769
0.0521431
0.051611
0.0510801
0.0505509
0.0500227
0.0494962
0.0489707
0.0484469
0.047924
0.0474028
0.0468825
0.0463637
0.045846
0.0453297
0.0448145
0.0443007
0.0437879
0.0432764
0.042766
0.0422568
0.0417488
0.0412418
0.0407361
0.0402314
0.0397279
0.0392254
0.0387242
0.0382239
0.0377248
0.0372266
0.0367297
0.0362337
0.0357389
0.0352451
0.0347525
0.0342609
0.0337705
0.0332811
0.032793
0.0323058
0.0318198
0.0313347
0.0308507
0.0303677
0.0298855
0.0294042
0.0289237
0.0284439
0.0279648
0.0274863
0.0270084
0.0265312
0.0260544
0.0255784
0.0251029
0.0246281
0.024154
0.0236809
0.0232087
0.0227374
0.0222673
0.0217982
0.0213304
0.0208641
0.0203993
0.0199361
0.0194747
0.0190147
0.0185566
0.0181003
0.0176466
0.0171947
0.0167449
0.0162969
0.0158513
0.0154071
0.0149651
0.0145249
0.0140871
0.0136504
0.0132161
0.0127831
0.0123528
0.0119235
0.0114965
0.0110709
0.0106471
0.0102249
0.00980446
0.00938528
0.00896855
0.00855319
0.0081396
0.00772779
0.00731746
0.00690938
0.00650179
0.00609766
0.00569357
0.00529344
0.00489185
0.00449618
0.00409699
0.00370662
0.00330905
0.00292452
0.00252807
0.00215001
0.00175362
0.00138163
0.000976345
0.000614946
0.000159889
0.208121
0.138856
0.114703
0.111741
0.108915
0.106694
0.105237
0.103994
0.102888
0.101815
0.100791
0.0998234
0.0988928
0.0980157
0.0971762
0.096366
0.0955764
0.0947927
0.094025
0.0932803
0.092542
0.0918115
0.0910938
0.0903851
0.0896871
0.0889916
0.0883057
0.0876225
0.0869481
0.0862749
0.0856104
0.0849476
0.0842904
0.0836363
0.0829858
0.0823394
0.0816982
0.0810588
0.0804232
0.0797906
0.0791603
0.0785348
0.0779103
0.0772907
0.0766717
0.076057
0.0754436
0.0748344
0.0742261
0.0736219
0.0730189
0.0724191
0.0718212
0.0712261
0.0706329
0.0700423
0.0694537
0.068867
0.0682831
0.0677009
0.0671211
0.0665431
0.0659672
0.0653933
0.064821
0.0642512
0.0636828
0.0631169
0.0625523
0.0619899
0.0614289
0.0608699
0.0603125
0.059757
0.0592031
0.058651
0.0581005
0.0575516
0.0570044
0.0564584
0.0559145
0.0553718
0.0548309
0.0542912
0.0537534
0.0532166
0.0526817
0.0521478
0.0516157
0.0510846
0.0505553
0.0500271
0.0495005
0.0489749
0.048451
0.0479281
0.0474067
0.0468864
0.0463676
0.0458498
0.0453335
0.0448182
0.0443043
0.0437914
0.0432799
0.0427694
0.0422601
0.0417521
0.041245
0.0407393
0.0402345
0.0397311
0.0392285
0.0387272
0.0382269
0.0377278
0.0372295
0.0367326
0.0362365
0.0357417
0.0352479
0.0347552
0.0342636
0.0337731
0.0332837
0.0327955
0.0323083
0.0318222
0.0313371
0.0308531
0.03037
0.0298878
0.0294065
0.0289259
0.0284462
0.027967
0.0274886
0.0270106
0.0265334
0.0260566
0.0255806
0.025105
0.0246303
0.0241562
0.0236831
0.0232108
0.0227396
0.0222694
0.0218002
0.0213325
0.0208661
0.0204013
0.0199381
0.0194767
0.0190167
0.0185585
0.0181022
0.0176484
0.0171965
0.0167466
0.0162986
0.0158529
0.0154087
0.0149668
0.0145265
0.0140886
0.013652
0.0132176
0.0127846
0.0123542
0.0119249
0.0114979
0.0110722
0.0106485
0.0102262
0.00980573
0.00938654
0.00896979
0.0085544
0.00814079
0.00772897
0.00731861
0.00691052
0.00650291
0.00609878
0.00569466
0.00529454
0.00489291
0.00449726
0.00409803
0.00370768
0.00331009
0.00292556
0.00252912
0.00215103
0.00175462
0.00138261
0.000977166
0.000615791
0.000159795
0.202607
0.13996
0.116621
0.112454
0.109376
0.107046
0.105524
0.104236
0.103096
0.101996
0.100953
0.0999701
0.0990251
0.0981384
0.097288
0.0964676
0.0956692
0.0948783
0.0941043
0.0933538
0.0926099
0.0918748
0.091153
0.0904408
0.0897392
0.0890405
0.0883518
0.0876661
0.0869893
0.0863139
0.0856474
0.0849827
0.0843239
0.0836682
0.0830162
0.0823685
0.081726
0.0810854
0.0804487
0.079815
0.0791838
0.0785574
0.0779321
0.0773116
0.0766919
0.0760765
0.0754624
0.0748526
0.0742437
0.073639
0.0730354
0.0724351
0.0718367
0.0712411
0.0706475
0.0700565
0.0694674
0.0688804
0.0682961
0.0677136
0.0671334
0.0665551
0.0659789
0.0654047
0.0648321
0.064262
0.0636934
0.0631272
0.0625623
0.0619997
0.0614385
0.0608792
0.0603217
0.059766
0.0592119
0.0586596
0.0581089
0.0575598
0.0570125
0.0564663
0.0559222
0.0553793
0.0548384
0.0542985
0.0537605
0.0532236
0.0526885
0.0521545
0.0516223
0.0510911
0.0505617
0.0500333
0.0495066
0.048981
0.0484569
0.0479339
0.0474125
0.046892
0.0463731
0.0458552
0.0453388
0.0448234
0.0443094
0.0437965
0.0432848
0.0427743
0.0422649
0.0417568
0.0412497
0.0407439
0.040239
0.0397355
0.0392329
0.0387315
0.0382311
0.0377319
0.0372336
0.0367366
0.0362405
0.0357456
0.0352517
0.034759
0.0342673
0.0337768
0.0332873
0.0327991
0.0323118
0.0318257
0.0313406
0.0308565
0.0303734
0.0298911
0.0294098
0.0289292
0.0284494
0.0279702
0.0274917
0.0270137
0.0265365
0.0260597
0.0255836
0.0251081
0.0246333
0.0241592
0.023686
0.0232138
0.0227425
0.0222723
0.0218031
0.0213353
0.0208689
0.020404
0.0199408
0.0194793
0.0190193
0.0185611
0.0181047
0.0176509
0.0171989
0.016749
0.0163009
0.0158552
0.0154109
0.0149689
0.0145286
0.0140907
0.013654
0.0132196
0.0127865
0.0123562
0.0119268
0.0114997
0.011074
0.0106503
0.0102279
0.00980744
0.00938823
0.00897146
0.00855604
0.00814239
0.00773056
0.00732017
0.00691205
0.00650441
0.00610028
0.00569611
0.005296
0.00489434
0.00449871
0.00409944
0.00370908
0.00331147
0.00292693
0.0025305
0.0021524
0.00175599
0.00138398
0.000978567
0.000617037
0.000159444
0.196624
0.139436
0.118402
0.11335
0.109813
0.107352
0.105764
0.104439
0.10328
0.102168
0.101115
0.100121
0.0991648
0.0982691
0.0974085
0.0965787
0.095772
0.0949743
0.0941942
0.0934378
0.0926881
0.0919485
0.0912224
0.0905064
0.0898007
0.0890984
0.0884066
0.087718
0.0870385
0.0863606
0.0856918
0.085025
0.0843642
0.0837066
0.0830528
0.0824037
0.0817597
0.0811177
0.0804797
0.0798447
0.0792123
0.0785849
0.0779586
0.0773372
0.0767165
0.0761002
0.0754853
0.0748748
0.0742651
0.0736597
0.0730555
0.0724546
0.0718555
0.0712594
0.0706652
0.0700737
0.0694842
0.0688967
0.068312
0.067729
0.0671484
0.0665697
0.0659931
0.0654185
0.0648456
0.0642752
0.0637063
0.0631397
0.0625746
0.0620117
0.0614502
0.0608907
0.0603328
0.0597769
0.0592226
0.05867
0.0581191
0.0575698
0.0570222
0.0564759
0.0559316
0.0553885
0.0548474
0.0543073
0.0537692
0.0532321
0.0526968
0.0521627
0.0516303
0.051099
0.0505694
0.0500409
0.0495141
0.0489882
0.0484641
0.0479409
0.0474194
0.0468988
0.0463797
0.0458618
0.0453452
0.0448298
0.0443156
0.0438026
0.0432909
0.0427802
0.0422708
0.0417625
0.0412553
0.0407495
0.0402445
0.0397409
0.0392382
0.0387368
0.0382362
0.037737
0.0372386
0.0367415
0.0362454
0.0357504
0.0352564
0.0347636
0.0342719
0.0337813
0.0332917
0.0328034
0.0323161
0.0318299
0.0313447
0.0308606
0.0303774
0.0298951
0.0294137
0.0289331
0.0284533
0.027974
0.0274955
0.0270175
0.0265402
0.0260634
0.0255873
0.0251117
0.0246369
0.0241628
0.0236896
0.0232172
0.0227459
0.0222757
0.0218065
0.0213386
0.0208721
0.0204072
0.0199439
0.0194824
0.0190223
0.018564
0.0181076
0.0176537
0.0172017
0.0167517
0.0163036
0.0158578
0.0154135
0.0149714
0.014531
0.0140931
0.0136563
0.0132219
0.0127888
0.0123583
0.011929
0.0115018
0.0110761
0.0106523
0.0102299
0.00980938
0.00939015
0.00897334
0.0085579
0.00814421
0.00773235
0.00732192
0.00691378
0.00650611
0.00610199
0.00569776
0.00529764
0.00489596
0.00450034
0.00410102
0.00371066
0.00331303
0.00292848
0.00253206
0.00215397
0.00175756
0.00138561
0.000980384
0.000618624
0.000158929
0.190147
0.1388
0.119565
0.114394
0.110307
0.107646
0.105972
0.104601
0.103423
0.102304
0.101252
0.100254
0.0992941
0.0983934
0.0975252
0.096689
0.0958766
0.095073
0.094288
0.0935265
0.0927715
0.0920277
0.0912976
0.0905781
0.0898681
0.0891622
0.0884674
0.0877759
0.0870937
0.0864131
0.0857418
0.0850728
0.08441
0.0837503
0.0830946
0.0824438
0.0817982
0.0811546
0.0805152
0.0798788
0.0792452
0.0786165
0.0779891
0.0773666
0.0767448
0.0761275
0.0755118
0.0749004
0.0742898
0.0736837
0.0730787
0.072477
0.0718774
0.0712806
0.0706858
0.0700937
0.0695036
0.0689156
0.0683303
0.0677468
0.0671658
0.0665866
0.0660096
0.0654346
0.0648612
0.0642905
0.0637212
0.0631543
0.0625888
0.0620255
0.0614637
0.0609039
0.0603458
0.0597896
0.059235
0.0586822
0.058131
0.0575814
0.0570336
0.056487
0.0559425
0.0553992
0.0548578
0.0543175
0.0537792
0.0532419
0.0527065
0.0521722
0.0516396
0.0511081
0.0505784
0.0500497
0.0495227
0.0489967
0.0484724
0.0479491
0.0474274
0.0469067
0.0463875
0.0458694
0.0453527
0.0448371
0.0443229
0.0438097
0.0432979
0.0427871
0.0422776
0.0417692
0.0412619
0.0407559
0.0402508
0.0397471
0.0392443
0.0387428
0.0382422
0.0377429
0.0372444
0.0367472
0.036251
0.0357559
0.0352618
0.034769
0.0342771
0.0337865
0.0332968
0.0328084
0.032321
0.0318348
0.0313495
0.0308653
0.0303821
0.0298997
0.0294183
0.0289376
0.0284578
0.0279785
0.0274999
0.0270219
0.0265446
0.0260677
0.0255915
0.0251159
0.024641
0.0241668
0.0236936
0.0232212
0.0227498
0.0222795
0.0218103
0.0213423
0.0208757
0.0204108
0.0199474
0.0194858
0.0190256
0.0185673
0.0181108
0.0176568
0.0172047
0.0167547
0.0163065
0.0158607
0.0154163
0.0149741
0.0145336
0.0140957
0.0136589
0.0132244
0.0127912
0.0123607
0.0119313
0.0115041
0.0110783
0.0106545
0.0102321
0.0098115
0.00939224
0.0089754
0.00855993
0.00814621
0.00773433
0.00732385
0.00691567
0.00650797
0.00610385
0.00569957
0.00529944
0.00489772
0.00450211
0.00410275
0.00371236
0.00331473
0.00293014
0.00253376
0.00215569
0.00175929
0.00138746
0.000982577
0.000620533
0.000158282
0.184157
0.13867
0.120286
0.115067
0.110851
0.108014
0.106195
0.104754
0.103543
0.102407
0.101352
0.100353
0.0993962
0.0984982
0.097628
0.0967901
0.0959758
0.0951681
0.0943799
0.093615
0.0928558
0.0921083
0.0913749
0.0906525
0.0899384
0.0892294
0.088532
0.0878377
0.0871531
0.0864696
0.0857958
0.0851248
0.08446
0.0837981
0.0831406
0.082488
0.0818407
0.0811955
0.0805547
0.0799167
0.0792817
0.0786518
0.0780231
0.0773995
0.0767766
0.0761582
0.0755415
0.0749292
0.0743177
0.0737108
0.0731049
0.0725024
0.071902
0.0713046
0.0707091
0.0701164
0.0695256
0.0689369
0.0683512
0.0677671
0.0671856
0.0666058
0.0660284
0.0654529
0.0648791
0.0643079
0.0637381
0.0631709
0.062605
0.0620414
0.0614792
0.060919
0.0603605
0.059804
0.0592491
0.058696
0.0581445
0.0575947
0.0570466
0.0564997
0.0559549
0.0554114
0.0548698
0.0543292
0.0537907
0.0532532
0.0527175
0.052183
0.0516502
0.0511185
0.0505886
0.0500597
0.0495326
0.0490064
0.0484819
0.0479584
0.0474366
0.0469157
0.0463963
0.0458781
0.0453613
0.0448455
0.0443312
0.0438179
0.0433059
0.042795
0.0422853
0.0417768
0.0412694
0.0407633
0.0402581
0.0397543
0.0392513
0.0387497
0.038249
0.0377495
0.037251
0.0367537
0.0362573
0.0357622
0.035268
0.0347751
0.0342831
0.0337924
0.0333026
0.0328142
0.0323267
0.0318403
0.031355
0.0308707
0.0303875
0.029905
0.0294235
0.0289428
0.0284629
0.0279835
0.0275049
0.0270268
0.0265495
0.0260725
0.0255963
0.0251206
0.0246457
0.0241714
0.0236981
0.0232257
0.0227542
0.0222838
0.0218145
0.0213464
0.0208797
0.0204147
0.0199512
0.0194896
0.0190293
0.0185709
0.0181143
0.0176603
0.0172081
0.016758
0.0163097
0.0158638
0.0154193
0.0149771
0.0145365
0.0140985
0.0136617
0.0132271
0.0127939
0.0123634
0.0119339
0.0115067
0.0110808
0.0106569
0.0102345
0.0098138
0.00939452
0.00897764
0.00856214
0.00814838
0.00773647
0.00732594
0.00691771
0.00650998
0.00610587
0.00570152
0.00530138
0.00489964
0.00450401
0.00410461
0.00371418
0.00331656
0.00293193
0.00253559
0.00215755
0.00176117
0.00138954
0.000985152
0.000622784
0.000157509
0.178727
0.138397
0.121113
0.115514
0.111245
0.108459
0.106473
0.104926
0.10367
0.102506
0.101438
0.100428
0.0994695
0.0985744
0.0977048
0.0968701
0.096059
0.0952511
0.094463
0.0936975
0.0929359
0.0921859
0.0914504
0.0907261
0.0900089
0.0892972
0.0885976
0.0879011
0.0872145
0.0865283
0.0858523
0.0851795
0.0845128
0.083849
0.0831895
0.0825352
0.0818862
0.0812394
0.0805972
0.0799576
0.0793213
0.0786902
0.0780602
0.0774354
0.0768113
0.0761918
0.0755741
0.0749608
0.0743484
0.0737406
0.0731337
0.0725304
0.0719293
0.0713311
0.0707348
0.0701414
0.06955
0.0689607
0.0683743
0.0677896
0.0672075
0.0666272
0.0660492
0.0654732
0.0648989
0.0643273
0.0637571
0.0631894
0.062623
0.062059
0.0614964
0.0609358
0.060377
0.0598202
0.0592649
0.0587114
0.0581597
0.0576095
0.0570611
0.0565139
0.0559689
0.055425
0.0548832
0.0543424
0.0538036
0.0532658
0.05273
0.0521951
0.0516621
0.0511302
0.0506001
0.050071
0.0495437
0.0490173
0.0484927
0.047969
0.0474469
0.0469259
0.0464063
0.0458879
0.0453709
0.044855
0.0443405
0.043827
0.0433149
0.0428039
0.042294
0.0417854
0.0412778
0.0407716
0.0402663
0.0397623
0.0392593
0.0387575
0.0382567
0.0377571
0.0372584
0.036761
0.0362645
0.0357693
0.035275
0.0347819
0.0342899
0.033799
0.0333092
0.0328206
0.0323331
0.0318466
0.0313612
0.0308769
0.0303935
0.029911
0.0294294
0.0289486
0.0284686
0.0279892
0.0275106
0.0270324
0.026555
0.0260779
0.0256017
0.0251259
0.0246509
0.0241765
0.0237032
0.0232306
0.0227591
0.0222886
0.0218192
0.021351
0.0208842
0.020419
0.0199555
0.0194937
0.0190333
0.0185749
0.0181182
0.0176641
0.0172118
0.0167616
0.0163133
0.0158672
0.0154226
0.0149803
0.0145397
0.0141016
0.0136647
0.0132301
0.0127968
0.0123662
0.0119367
0.0115094
0.0110835
0.0106595
0.010237
0.00981629
0.00939698
0.00898007
0.00856454
0.00815073
0.00773879
0.00732821
0.00691992
0.00651217
0.00610805
0.00570362
0.00530346
0.0049017
0.00450605
0.00410662
0.00371613
0.00331852
0.00293384
0.00253756
0.00215957
0.00176321
0.00139186
0.00098811
0.000625394
0.000156611
0.173636
0.138033
0.12182
0.11606
0.111542
0.108767
0.10679
0.105137
0.103812
0.102613
0.10153
0.100502
0.0995354
0.098636
0.0977605
0.0969262
0.0961187
0.0953128
0.0945284
0.0937663
0.0930053
0.0922554
0.0915198
0.0907951
0.090076
0.0893625
0.0886615
0.0879634
0.0872753
0.0865871
0.0859093
0.0852349
0.0845667
0.0839011
0.0832399
0.0825841
0.0819336
0.0812854
0.0806419
0.0800007
0.0793632
0.0787309
0.0780995
0.0774737
0.0768483
0.0762278
0.0756091
0.0749948
0.0743814
0.0737728
0.0731649
0.0725608
0.0719588
0.0713599
0.0707628
0.0701687
0.0695765
0.0689865
0.0683995
0.0678142
0.0672316
0.0666507
0.0660721
0.0654955
0.0649207
0.0643486
0.0637779
0.0632098
0.0626429
0.0620785
0.0615155
0.0609544
0.0603952
0.059838
0.0592823
0.0587285
0.0581764
0.0576259
0.0570772
0.0565297
0.0559843
0.0554402
0.054898
0.054357
0.0538179
0.0532798
0.0527437
0.0522086
0.0516754
0.0511432
0.0506129
0.0500836
0.049556
0.0490294
0.0485046
0.0479806
0.0474584
0.0469372
0.0464174
0.0458988
0.0453817
0.0448656
0.0443509
0.0438372
0.0433249
0.0428137
0.0423038
0.041795
0.0412872
0.0407808
0.0402754
0.0397713
0.0392681
0.0387662
0.0382652
0.0377655
0.0372667
0.0367692
0.0362726
0.0357772
0.0352828
0.0347896
0.0342974
0.0338065
0.0333166
0.0328279
0.0323402
0.0318537
0.0313682
0.0308837
0.0304003
0.0299177
0.029436
0.0289551
0.0284751
0.0279956
0.0275168
0.0270386
0.0265611
0.026084
0.0256076
0.0251318
0.0246567
0.0241822
0.0237087
0.0232361
0.0227644
0.0222938
0.0218243
0.021356
0.020889
0.0204238
0.0199601
0.0194982
0.0190378
0.0185792
0.0181224
0.0176682
0.0172158
0.0167655
0.0163171
0.0158709
0.0154262
0.0149838
0.014543
0.0141049
0.013668
0.0132333
0.0128
0.0123693
0.0119397
0.0115124
0.0110863
0.0106623
0.0102398
0.00981896
0.00939963
0.00898268
0.0085671
0.00815325
0.00774127
0.00733063
0.00692227
0.00651451
0.00611038
0.00570587
0.00530568
0.0049039
0.00450822
0.00410875
0.0037182
0.0033206
0.00293586
0.00253967
0.00216173
0.00176543
0.00139441
0.00099144
0.000628391
0.000155617
0.168805
0.13761
0.122384
0.116557
0.111935
0.108999
0.107009
0.105358
0.10399
0.102737
0.10163
0.100583
0.0996067
0.0987001
0.0978138
0.096975
0.0961656
0.095357
0.0945745
0.0938158
0.0930569
0.0923095
0.0915767
0.0908544
0.0901352
0.0894216
0.0887205
0.088022
0.0873332
0.0866435
0.0859646
0.0852891
0.0846199
0.0839528
0.0832902
0.0826333
0.0819815
0.081332
0.0806875
0.0800448
0.0794062
0.0787729
0.0781402
0.0775135
0.076887
0.0762654
0.0756458
0.0750305
0.0744163
0.0738067
0.0731979
0.072593
0.0719902
0.0713905
0.0707927
0.0701979
0.0696049
0.0690143
0.0684266
0.0678407
0.0672574
0.0666759
0.0660968
0.0655196
0.0649442
0.0643716
0.0638005
0.0632318
0.0626645
0.0620996
0.0615361
0.0609747
0.060415
0.0598574
0.0593014
0.0587472
0.0581947
0.0576438
0.0570947
0.0565469
0.0560012
0.0554567
0.0549143
0.0543729
0.0538336
0.0532952
0.0527588
0.0522235
0.0516899
0.0511575
0.0506269
0.0500973
0.0495696
0.0490427
0.0485177
0.0479935
0.0474711
0.0469496
0.0464297
0.0459109
0.0453935
0.0448772
0.0443623
0.0438485
0.043336
0.0428247
0.0423145
0.0418055
0.0412976
0.0407911
0.0402855
0.0397812
0.0392779
0.0387759
0.0382747
0.0377749
0.0372759
0.0367783
0.0362815
0.035786
0.0352914
0.0347981
0.0343058
0.0338147
0.0333247
0.0328359
0.0323481
0.0318615
0.0313759
0.0308913
0.0304078
0.0299251
0.0294434
0.0289624
0.0284822
0.0280026
0.0275238
0.0270455
0.0265679
0.0260907
0.0256142
0.0251383
0.024663
0.0241884
0.0237148
0.0232421
0.0227703
0.0222996
0.0218299
0.0213614
0.0208943
0.0204289
0.0199652
0.0195031
0.0190426
0.0185839
0.018127
0.0176726
0.0172202
0.0167698
0.0163212
0.0158749
0.0154301
0.0149876
0.0145467
0.0141085
0.0136716
0.0132368
0.0128034
0.0123726
0.011943
0.0115156
0.0110894
0.0106654
0.0102428
0.00982184
0.00940248
0.00898549
0.00856986
0.00815596
0.00774393
0.00733323
0.00692479
0.00651702
0.00611288
0.00570828
0.00530805
0.00490626
0.00451053
0.00411102
0.00372038
0.00332281
0.00293801
0.00254193
0.00216403
0.00176783
0.00139719
0.00099512
0.000631799
0.00015456
0.164233
0.137098
0.122825
0.116985
0.112306
0.109306
0.107181
0.105538
0.104137
0.102875
0.101746
0.100671
0.0996816
0.098769
0.0978712
0.0970274
0.0962139
0.0953988
0.0946143
0.093855
0.0930947
0.0923479
0.0916175
0.0908987
0.0901809
0.0894692
0.08877
0.0880728
0.0873849
0.0866947
0.0860156
0.0853399
0.0846705
0.0840022
0.0833386
0.0826811
0.0820284
0.081378
0.0807327
0.0800888
0.0794493
0.0788152
0.0781815
0.077554
0.0769264
0.0763039
0.0756835
0.0750674
0.0744523
0.0738419
0.0732321
0.0726265
0.072023
0.0714226
0.070824
0.0702286
0.0696349
0.0690435
0.0684552
0.0678687
0.0672848
0.0667027
0.0661231
0.0655453
0.0649693
0.0643962
0.0638245
0.0632554
0.0626876
0.0621223
0.0615583
0.0609964
0.0604363
0.0598783
0.0593218
0.0587673
0.0582144
0.0576632
0.0571137
0.0565655
0.0560195
0.0554747
0.0549319
0.0543902
0.0538505
0.0533119
0.0527752
0.0522396
0.0517057
0.0511731
0.0506422
0.0501124
0.0495843
0.0490572
0.0485319
0.0480076
0.0474849
0.0469632
0.046443
0.045924
0.0454065
0.04489
0.0443749
0.0438608
0.0433482
0.0428366
0.0423263
0.0418171
0.041309
0.0408023
0.0402966
0.0397921
0.0392886
0.0387864
0.0382851
0.0377851
0.037286
0.0367882
0.0362913
0.0357956
0.0353009
0.0348075
0.034315
0.0338238
0.0333336
0.0328447
0.0323568
0.03187
0.0313843
0.0308997
0.030416
0.0299332
0.0294514
0.0289703
0.0284901
0.0280104
0.0275314
0.027053
0.0265753
0.026098
0.0256214
0.0251453
0.02467
0.0241953
0.0237215
0.0232486
0.0227767
0.0223058
0.021836
0.0213674
0.0209001
0.0204346
0.0199707
0.0195085
0.0190478
0.018589
0.0181319
0.0176774
0.0172249
0.0167744
0.0163258
0.0158793
0.0154344
0.0149917
0.0145507
0.0141124
0.0136754
0.0132405
0.012807
0.0123761
0.0119465
0.011519
0.0110927
0.0106686
0.010246
0.00982493
0.00940555
0.00898851
0.0085728
0.00815885
0.00774677
0.00733599
0.00692748
0.00651971
0.00611553
0.00571084
0.00531058
0.00490876
0.00451296
0.00411342
0.00372269
0.00332515
0.00294028
0.00254434
0.00216648
0.00177044
0.00140023
0.000999145
0.000635647
0.000153481
0.159922
0.136471
0.123149
0.117348
0.112647
0.109601
0.107406
0.105713
0.10424
0.103
0.101838
0.100768
0.0997671
0.0988449
0.0979313
0.0970818
0.0962661
0.0954435
0.0946563
0.0938952
0.0931309
0.0923814
0.0916505
0.0909326
0.0902141
0.0895034
0.0888063
0.0881116
0.0874258
0.0867366
0.0860589
0.0853842
0.0847157
0.0840472
0.0833832
0.0827257
0.0820728
0.0814218
0.0807762
0.0801312
0.0794912
0.0788566
0.0782221
0.077594
0.0769655
0.0763422
0.0757212
0.0751045
0.0744887
0.0738776
0.073267
0.0726606
0.0720565
0.0714555
0.0708562
0.0702603
0.0696658
0.0690737
0.0684848
0.0678978
0.0673134
0.0667306
0.0661506
0.0655721
0.0649956
0.0644221
0.0638499
0.0632803
0.062712
0.0621463
0.0615818
0.0610194
0.0604589
0.0599005
0.0593436
0.0587887
0.0582354
0.0576838
0.0571339
0.0565853
0.056039
0.0554939
0.0549508
0.0544087
0.0538688
0.0533298
0.0527928
0.0522569
0.0517227
0.0511898
0.0506587
0.0501286
0.0496003
0.0490729
0.0485474
0.0480227
0.0474998
0.0469779
0.0464575
0.0459383
0.0454205
0.0449038
0.0443885
0.0438742
0.0433614
0.0428496
0.0423391
0.0418297
0.0413214
0.0408145
0.0403086
0.039804
0.0393003
0.0387979
0.0382965
0.0377963
0.037297
0.0367991
0.036302
0.0358061
0.0353113
0.0348177
0.0343251
0.0338338
0.0333434
0.0328544
0.0323663
0.0318794
0.0313936
0.0309088
0.030425
0.0299421
0.0294602
0.028979
0.0284986
0.0280188
0.0275398
0.0270612
0.0265834
0.0261059
0.0256293
0.025153
0.0246776
0.0242027
0.0237288
0.0232558
0.0227837
0.0223126
0.0218427
0.0213739
0.0209065
0.0204407
0.0199767
0.0195143
0.0190535
0.0185945
0.0181373
0.0176827
0.01723
0.0167794
0.0163306
0.015884
0.015439
0.0149961
0.014555
0.0141166
0.0136795
0.0132445
0.012811
0.01238
0.0119503
0.0115227
0.0110963
0.0106722
0.0102494
0.00982825
0.00940887
0.00899175
0.00857595
0.00816194
0.00774982
0.00733895
0.00693035
0.0065226
0.00611835
0.00571359
0.00531327
0.00491141
0.00451553
0.00411596
0.00372512
0.00332762
0.00294268
0.00254691
0.00216907
0.00177328
0.00140352
0.00100352
0.000639948
0.000152418
0.155871
0.135725
0.123356
0.117645
0.112956
0.109874
0.107627
0.105882
0.104378
0.103113
0.10191
0.100859
0.0998566
0.0989037
0.0980013
0.097142
0.096321
0.0954898
0.0946996
0.0939384
0.0931695
0.0924163
0.0916844
0.090966
0.0902442
0.0895321
0.088835
0.0881409
0.0874562
0.0867672
0.0860913
0.0854185
0.084752
0.0840843
0.0834209
0.0827646
0.0821123
0.0814614
0.0808162
0.0801705
0.0795305
0.0788957
0.0782609
0.0776325
0.0770033
0.0763795
0.0757581
0.0751408
0.0745245
0.0739131
0.0733016
0.0726947
0.0720902
0.0714886
0.0708887
0.0702924
0.0696972
0.0691045
0.0685151
0.0679276
0.0673427
0.0667594
0.0661789
0.0655998
0.0650229
0.0644489
0.0638762
0.0633061
0.0627374
0.0621713
0.0616063
0.0610434
0.0604826
0.0599238
0.0593665
0.0588112
0.0582575
0.0577056
0.0571553
0.0566063
0.0560596
0.0555142
0.0549707
0.0544284
0.0538881
0.0533488
0.0528116
0.0522753
0.0517408
0.0512076
0.0506762
0.0501458
0.0496173
0.0490897
0.0485639
0.048039
0.0475159
0.0469936
0.046473
0.0459535
0.0454355
0.0449186
0.0444031
0.0438886
0.0433756
0.0428636
0.0423528
0.0418433
0.0413348
0.0408277
0.0403216
0.0398168
0.0393129
0.0388104
0.0383087
0.0378084
0.0373089
0.0368108
0.0363135
0.0358175
0.0353225
0.0348288
0.034336
0.0338445
0.0333541
0.0328648
0.0323766
0.0318896
0.0314036
0.0309187
0.0304348
0.0299518
0.0294697
0.0289884
0.0285079
0.028028
0.0275488
0.0270701
0.0265922
0.0261146
0.0256378
0.0251614
0.0246858
0.0242108
0.0237367
0.0232635
0.0227913
0.02232
0.0218499
0.021381
0.0209134
0.0204474
0.0199832
0.0195206
0.0190597
0.0186005
0.0181432
0.0176884
0.0172356
0.0167849
0.0163359
0.0158892
0.015444
0.015001
0.0145597
0.0141212
0.013684
0.0132489
0.0128153
0.0123841
0.0119544
0.0115267
0.0111002
0.010676
0.0102531
0.00983184
0.00941244
0.00899521
0.00857931
0.00816523
0.00775306
0.0073421
0.00693342
0.00652569
0.00612132
0.00571652
0.00531614
0.00491419
0.00451822
0.00411863
0.00372767
0.00333022
0.00294524
0.00254964
0.00217178
0.00177637
0.00140708
0.00100824
0.000644716
0.000151399
0.152076
0.13487
0.123447
0.117873
0.113232
0.110127
0.107835
0.106048
0.104518
0.103224
0.10201
0.100943
0.0999312
0.0989533
0.0980725
0.0972048
0.0963615
0.0955427
0.0947481
0.0939837
0.0932098
0.0924519
0.0917193
0.0910018
0.0902757
0.0895614
0.0888635
0.0881689
0.0874833
0.0867926
0.0861168
0.0854446
0.0847794
0.084112
0.0834493
0.0827949
0.0821439
0.0814941
0.0808502
0.0802044
0.0795652
0.0789309
0.0782962
0.0776681
0.0770384
0.0764144
0.0757931
0.0751755
0.0745588
0.0739473
0.0733351
0.0727279
0.072123
0.0715212
0.0709208
0.0703241
0.0697284
0.0691351
0.0685455
0.0679575
0.0673722
0.0667884
0.0662076
0.065628
0.0650505
0.0644762
0.0639031
0.0633326
0.0627635
0.062197
0.0616316
0.0610682
0.060507
0.0599479
0.0593902
0.0588346
0.0582805
0.0577283
0.0571776
0.0566282
0.0560812
0.0555355
0.0549917
0.054449
0.0539085
0.0533688
0.0528313
0.0522947
0.0517599
0.0512264
0.0506948
0.0501641
0.0496353
0.0491074
0.0485814
0.0480562
0.0475329
0.0470103
0.0464895
0.0459698
0.0454516
0.0449344
0.0444187
0.043904
0.0433907
0.0428785
0.0423676
0.0418578
0.0413491
0.0408418
0.0403355
0.0398305
0.0393264
0.0388237
0.0383219
0.0378214
0.0373217
0.0368234
0.036326
0.0358298
0.0353346
0.0348407
0.0343478
0.0338561
0.0333655
0.0328761
0.0323878
0.0319007
0.0314145
0.0309295
0.0304454
0.0299622
0.02948
0.0289986
0.028518
0.0280379
0.0275586
0.0270798
0.0266017
0.0261239
0.025647
0.0251704
0.0246946
0.0242195
0.0237453
0.0232719
0.0227995
0.0223281
0.0218577
0.0213887
0.0209209
0.0204547
0.0199902
0.0195275
0.0190664
0.0186071
0.0181497
0.0176946
0.0172416
0.0167908
0.0163417
0.0158947
0.0154494
0.0150062
0.0145649
0.0141262
0.0136888
0.0132536
0.0128199
0.0123886
0.0119588
0.0115309
0.0111044
0.0106802
0.0102571
0.00983576
0.00941631
0.00899891
0.00858289
0.00816877
0.00775653
0.00734548
0.00693677
0.006529
0.00612446
0.00571973
0.00531921
0.00491707
0.00452103
0.00412147
0.00373037
0.00333299
0.002948
0.00255252
0.00217462
0.00177974
0.00141086
0.00101334
0.000649937
0.000150435
0.148528
0.13392
0.123427
0.118031
0.113471
0.110357
0.108031
0.106208
0.104652
0.103334
0.102111
0.101026
0.100005
0.0990249
0.0981323
0.0972592
0.0963981
0.0955972
0.0947991
0.0940168
0.0932496
0.092495
0.0917578
0.0910391
0.0903086
0.0895914
0.0888927
0.0881979
0.0875118
0.0868181
0.0861416
0.0854691
0.0848039
0.084135
0.0834718
0.0828183
0.0821679
0.0815188
0.0808763
0.0802306
0.0795928
0.0789596
0.0783258
0.0776987
0.077069
0.0764453
0.0758245
0.0752072
0.0745905
0.0739792
0.0733666
0.0727592
0.0721543
0.0715522
0.0709516
0.0703549
0.0697586
0.069165
0.0685751
0.0679868
0.0674012
0.0668171
0.0662361
0.0656559
0.0650781
0.0645035
0.06393
0.0633593
0.0627897
0.062223
0.0616572
0.0610934
0.0605319
0.0599725
0.0594144
0.0588586
0.058304
0.0577515
0.0572005
0.0566508
0.0561035
0.0555574
0.0550134
0.0544704
0.0539296
0.0533896
0.0528519
0.0523149
0.0517798
0.0512461
0.0507142
0.0501832
0.0496542
0.049126
0.0485998
0.0480743
0.0475507
0.0470279
0.0465068
0.045987
0.0454685
0.0449511
0.0444351
0.0439202
0.0434068
0.0428943
0.0423832
0.0418732
0.0413643
0.0408568
0.0403503
0.0398451
0.0393408
0.038838
0.0383359
0.0378353
0.0373354
0.0368369
0.0363393
0.0358429
0.0353476
0.0348535
0.0343604
0.0338686
0.0333778
0.0328883
0.0323998
0.0319125
0.0314262
0.030941
0.0304568
0.0299734
0.0294911
0.0290095
0.0285287
0.0280485
0.0275691
0.0270901
0.0266118
0.026134
0.0256568
0.0251802