/*--------------------------------*- C++ -*----------------------------------*\
  =========                 |
  \\      /  F ield         | OpenFOAM: The Open Source CFD Toolbox
   \\    /   O peration     | Website:  https://openfoam.org
    \\  /    A nd           | Version:  12
     \\/     M anipulation  |
\*---------------------------------------------------------------------------*/
FoamFile
{
    format      ascii;
    class       volVectorField;
    location    "400";
    object      U;
}
// * * * * * * * * * * * * * * * * * * * * * * * * * * * * * * * * * * * * * //

dimensions      [0 1 -1 0 0 0 0];

internalField   nonuniform List<vector> 
20000
(
(0.696546 -0.0953481 0)
(0.391224 -0.00674948 0)
(0.255428 0.000249496 0)
(0.201815 0.00018303 0)
(0.179406 0.000130791 0)
(0.165878 7.44353e-05 0)
(0.156867 1.49721e-05 0)
(0.150832 -6.61943e-06 0)
(0.14623 -1.39754e-05 0)
(0.14271 -8.91449e-06 0)
(0.139523 -8.2058e-06 0)
(0.1371 -7.7556e-06 0)
(0.134763 -2.84593e-06 0)
(0.132854 -6.35171e-06 0)
(0.13117 -6.20325e-06 0)
(0.129714 -4.66524e-06 0)
(0.128343 -2.89241e-06 0)
(0.127118 -1.29263e-06 0)
(0.12595 -1.06422e-07 0)
(0.124897 1.51578e-07 0)
(0.123897 1.44466e-06 0)
(0.122963 2.27025e-06 0)
(0.122077 2.8458e-06 0)
(0.121238 3.11e-06 0)
(0.120459 3.31913e-06 0)
(0.119708 4.11417e-06 0)
(0.118993 4.20116e-06 0)
(0.118308 4.76323e-06 0)
(0.117649 4.7984e-06 0)
(0.11702 5.1147e-06 0)
(0.116417 5.0617e-06 0)
(0.115835 5.43516e-06 0)
(0.115271 5.42267e-06 0)
(0.114731 5.50876e-06 0)
(0.114207 5.64011e-06 0)
(0.1137 5.64219e-06 0)
(0.113211 5.50903e-06 0)
(0.11274 5.66386e-06 0)
(0.112278 5.62252e-06 0)
(0.111836 5.58798e-06 0)
(0.111401 5.6671e-06 0)
(0.110982 5.51211e-06 0)
(0.110573 5.60609e-06 0)
(0.110176 5.41344e-06 0)
(0.109791 5.484e-06 0)
(0.109415 5.38509e-06 0)
(0.109047 5.423e-06 0)
(0.108691 5.25767e-06 0)
(0.108342 5.31537e-06 0)
(0.108002 5.14171e-06 0)
(0.107671 5.14583e-06 0)
(0.107348 5.05721e-06 0)
(0.107031 5.04086e-06 0)
(0.106723 4.93043e-06 0)
(0.106421 4.88532e-06 0)
(0.106126 4.80117e-06 0)
(0.105839 4.74426e-06 0)
(0.105557 4.70784e-06 0)
(0.105281 4.60546e-06 0)
(0.105011 4.56761e-06 0)
(0.104747 4.48123e-06 0)
(0.104489 4.43601e-06 0)
(0.104235 4.36553e-06 0)
(0.103988 4.29413e-06 0)
(0.103744 4.26991e-06 0)
(0.103506 4.17022e-06 0)
(0.103272 4.1379e-06 0)
(0.103043 4.04251e-06 0)
(0.102819 4.01451e-06 0)
(0.102599 3.93233e-06 0)
(0.102383 3.89033e-06 0)
(0.102171 3.82909e-06 0)
(0.101963 3.78491e-06 0)
(0.101758 3.71611e-06 0)
(0.101558 3.66812e-06 0)
(0.101361 3.61104e-06 0)
(0.101167 3.55551e-06 0)
(0.100977 3.50828e-06 0)
(0.100791 3.44241e-06 0)
(0.100608 3.4195e-06 0)
(0.100428 3.34358e-06 0)
(0.100251 3.31978e-06 0)
(0.100077 3.24527e-06 0)
(0.0999055 3.22573e-06 0)
(0.0997375 3.15116e-06 0)
(0.099572 3.13089e-06 0)
(0.0994097 3.06263e-06 0)
(0.0992496 3.03885e-06 0)
(0.0990925 2.97894e-06 0)
(0.0989375 2.95542e-06 0)
(0.0987855 2.89188e-06 0)
(0.0986354 2.8736e-06 0)
(0.0984882 2.80856e-06 0)
(0.0983429 2.79332e-06 0)
(0.0982002 2.72979e-06 0)
(0.0980596 2.71288e-06 0)
(0.0979212 2.6566e-06 0)
(0.0977849 2.63455e-06 0)
(0.0976508 2.58638e-06 0)
(0.0975185 2.56133e-06 0)
(0.0973884 2.51519e-06 0)
(0.0972601 2.49093e-06 0)
(0.0971338 2.44731e-06 0)
(0.0970095 2.42267e-06 0)
(0.0968868 2.38315e-06 0)
(0.0967661 2.35456e-06 0)
(0.0966468 2.32443e-06 0)
(0.0965297 2.28851e-06 0)
(0.0964138 2.26767e-06 0)
(0.0962999 2.22734e-06 0)
(0.0961873 2.20962e-06 0)
(0.0960765 2.17082e-06 0)
(0.095967 2.15216e-06 0)
(0.0958592 2.1151e-06 0)
(0.0957526 2.10192e-06 0)
(0.0956475 2.06659e-06 0)
(0.0955437 2.04872e-06 0)
(0.0954414 2.01841e-06 0)
(0.0953403 2.00273e-06 0)
(0.0952406 1.97804e-06 0)
(0.095142 1.95639e-06 0)
(0.0950449 1.92951e-06 0)
(0.0949491 1.91075e-06 0)
(0.0948546 1.88033e-06 0)
(0.0947618 1.85346e-06 0)
(0.0946699 1.82403e-06 0)
(0.09458 1.79662e-06 0)
(0.0944908 1.76997e-06 0)
(0.0944036 1.73829e-06 0)
(0.0943169 1.71118e-06 0)
(0.0942324 1.67821e-06 0)
(0.094148 1.66168e-06 0)
(0.0940654 1.62958e-06 0)
(0.0939827 1.61862e-06 0)
(0.0939015 1.59781e-06 0)
(0.0938199 1.59715e-06 0)
(0.0937395 1.58408e-06 0)
(0.0936583 1.59072e-06 0)
(0.0935782 1.58522e-06 0)
(0.093497 1.60344e-06 0)
(0.0934168 1.60219e-06 0)
(0.0933352 1.62345e-06 0)
(0.0932546 1.63667e-06 0)
(0.0931725 1.66947e-06 0)
(0.0930915 1.65942e-06 0)
(0.0930091 1.6871e-06 0)
(0.092928 1.70083e-06 0)
(0.0928453 1.72696e-06 0)
(0.0927637 1.72778e-06 0)
(0.0926801 1.79521e-06 0)
(0.0925981 1.81515e-06 0)
(0.0925147 1.83924e-06 0)
(0.0924338 1.7826e-06 0)
(0.0923516 1.79999e-06 0)
(0.0922722 1.7851e-06 0)
(0.092192 1.80027e-06 0)
(0.0921147 1.73153e-06 0)
(0.0920372 1.72056e-06 0)
(0.0919635 1.67149e-06 0)
(0.0918892 1.67493e-06 0)
(0.091818 1.60021e-06 0)
(0.0917454 1.62471e-06 0)
(0.0916755 1.63124e-06 0)
(0.0916045 1.64848e-06 0)
(0.0915365 1.58126e-06 0)
(0.0914677 1.56737e-06 0)
(0.0914018 1.53712e-06 0)
(0.0913363 1.52019e-06 0)
(0.0912732 1.44025e-06 0)
(0.0912102 1.41863e-06 0)
(0.0911495 1.41654e-06 0)
(0.0910888 1.39945e-06 0)
(0.091031 1.3349e-06 0)
(0.0909722 1.36037e-06 0)
(0.0909158 1.33181e-06 0)
(0.0908596 1.33916e-06 0)
(0.0908048 1.26938e-06 0)
(0.0907495 1.25791e-06 0)
(0.0906975 1.21858e-06 0)
(0.0906449 1.22063e-06 0)
(0.0905956 1.11136e-06 0)
(0.0905442 1.14669e-06 0)
(0.0904977 1.07701e-06 0)
(0.0904469 1.18245e-06 0)
(0.0904021 9.95878e-07 0)
(0.090352 1.13505e-06 0)
(0.0903098 9.74408e-07 0)
(0.0902583 1.18045e-06 0)
(0.0902195 8.57203e-07 0)
(0.0901655 1.22927e-06 0)
(0.0901311 7.93841e-07 0)
(0.0900732 1.35457e-06 0)
(0.0900437 6.18835e-07 0)
(0.0899822 1.4986e-06 0)
(0.0899572 3.5524e-07 0)
(0.089897 1.5799e-06 0)
(0.0898808 -1.88878e-07 0)
(0.0898194 1.70755e-06 0)
(0.0898405 -2.10257e-06 0)
(0.0897671 5.02682e-06 0)
(0.971308 0.0731489 0)
(0.832588 0.0463964 0)
(0.671413 0.0180087 0)
(0.56224 0.00770762 0)
(0.499334 0.00400565 0)
(0.458867 0.0024928 0)
(0.430569 0.00167232 0)
(0.409987 0.001218 0)
(0.393936 0.000939091 0)
(0.381192 0.000775863 0)
(0.370333 0.000648798 0)
(0.361511 0.00054836 0)
(0.35369 0.000483655 0)
(0.347072 0.000411252 0)
(0.341273 0.000358778 0)
(0.336212 0.000321913 0)
(0.331587 0.000292921 0)
(0.327472 0.000268831 0)
(0.323664 0.000248748 0)
(0.320226 0.000228177 0)
(0.31703 0.00021399 0)
(0.314082 0.000200672 0)
(0.311332 0.000189035 0)
(0.30876 0.000177103 0)
(0.306379 0.000166378 0)
(0.304125 0.000159343 0)
(0.302001 0.000151106 0)
(0.299989 0.000144947 0)
(0.298081 0.000137865 0)
(0.296273 0.000132284 0)
(0.294552 0.000126364 0)
(0.292909 0.000122144 0)
(0.291334 0.00011713 0)
(0.289836 0.000112737 0)
(0.288394 0.000109055 0)
(0.28701 0.00010522 0)
(0.285683 0.00010106 0)
(0.28441 9.82173e-05 0)
(0.283174 9.49356e-05 0)
(0.281994 9.18659e-05 0)
(0.280845 8.94655e-05 0)
(0.279741 8.64181e-05 0)
(0.278669 8.42824e-05 0)
(0.277636 8.1395e-05 0)
(0.276634 7.94102e-05 0)
(0.275664 7.72012e-05 0)
(0.274718 7.54107e-05 0)
(0.273805 7.30972e-05 0)
(0.272914 7.15662e-05 0)
(0.272051 6.93969e-05 0)
(0.271212 6.78066e-05 0)
(0.270396 6.61061e-05 0)
(0.2696 6.46854e-05 0)
(0.268825 6.29885e-05 0)
(0.268071 6.15687e-05 0)
(0.267335 6.00756e-05 0)
(0.266619 5.87185e-05 0)
(0.26592 5.75219e-05 0)
(0.265237 5.61325e-05 0)
(0.264571 5.49877e-05 0)
(0.26392 5.37252e-05 0)
(0.263285 5.26481e-05 0)
(0.262662 5.15111e-05 0)
(0.262056 5.04083e-05 0)
(0.261461 4.95127e-05 0)
(0.26088 4.84026e-05 0)
(0.260311 4.75142e-05 0)
(0.259754 4.64546e-05 0)
(0.259209 4.56323e-05 0)
(0.258676 4.46758e-05 0)
(0.258153 4.38538e-05 0)
(0.257641 4.30166e-05 0)
(0.257139 4.22619e-05 0)
(0.256646 4.14278e-05 0)
(0.256164 4.06826e-05 0)
(0.255691 3.99235e-05 0)
(0.255227 3.91932e-05 0)
(0.254771 3.84924e-05 0)
(0.254326 3.77587e-05 0)
(0.253887 3.71783e-05 0)
(0.253457 3.64617e-05 0)
(0.253034 3.58993e-05 0)
(0.252619 3.52038e-05 0)
(0.252211 3.46819e-05 0)
(0.251812 3.40112e-05 0)
(0.251418 3.35065e-05 0)
(0.251032 3.28821e-05 0)
(0.250652 3.23873e-05 0)
(0.25028 3.18157e-05 0)
(0.249912 3.13517e-05 0)
(0.249552 3.07816e-05 0)
(0.249197 3.03518e-05 0)
(0.248849 2.97942e-05 0)
(0.248506 2.93934e-05 0)
(0.248169 2.88554e-05 0)
(0.247837 2.84646e-05 0)
(0.247511 2.79707e-05 0)
(0.247189 2.75778e-05 0)
(0.246873 2.71254e-05 0)
(0.246562 2.67445e-05 0)
(0.246256 2.63058e-05 0)
(0.245954 2.59419e-05 0)
(0.245657 2.55211e-05 0)
(0.245365 2.51715e-05 0)
(0.245077 2.47765e-05 0)
(0.244794 2.44259e-05 0)
(0.244514 2.40731e-05 0)
(0.244239 2.37099e-05 0)
(0.243968 2.34028e-05 0)
(0.243701 2.30408e-05 0)
(0.243438 2.27495e-05 0)
(0.243178 2.24036e-05 0)
(0.242922 2.21253e-05 0)
(0.24267 2.17941e-05 0)
(0.242421 2.15405e-05 0)
(0.242176 2.12259e-05 0)
(0.241934 2.09689e-05 0)
(0.241695 2.06752e-05 0)
(0.24146 2.04252e-05 0)
(0.241227 2.01529e-05 0)
(0.240998 1.98941e-05 0)
(0.240772 1.96079e-05 0)
(0.240549 1.93546e-05 0)
(0.240329 1.90535e-05 0)
(0.240113 1.87837e-05 0)
(0.2399 1.8488e-05 0)
(0.23969 1.82146e-05 0)
(0.239483 1.79442e-05 0)
(0.23928 1.76752e-05 0)
(0.239079 1.74159e-05 0)
(0.238882 1.7164e-05 0)
(0.238686 1.69777e-05 0)
(0.238493 1.67756e-05 0)
(0.238301 1.66387e-05 0)
(0.238112 1.6498e-05 0)
(0.237922 1.64355e-05 0)
(0.237735 1.63568e-05 0)
(0.237547 1.63381e-05 0)
(0.237361 1.63024e-05 0)
(0.237174 1.63422e-05 0)
(0.236988 1.63398e-05 0)
(0.2368 1.64002e-05 0)
(0.236615 1.64374e-05 0)
(0.236426 1.6511e-05 0)
(0.236241 1.64757e-05 0)
(0.236052 1.65267e-05 0)
(0.235867 1.65463e-05 0)
(0.235679 1.66219e-05 0)
(0.235494 1.6642e-05 0)
(0.235305 1.67686e-05 0)
(0.23512 1.67481e-05 0)
(0.234933 1.66965e-05 0)
(0.234751 1.64438e-05 0)
(0.234567 1.63486e-05 0)
(0.234389 1.61551e-05 0)
(0.23421 1.60162e-05 0)
(0.234037 1.56424e-05 0)
(0.233864 1.53669e-05 0)
(0.233699 1.50183e-05 0)
(0.233533 1.48407e-05 0)
(0.233374 1.45172e-05 0)
(0.233212 1.44423e-05 0)
(0.233056 1.43077e-05 0)
(0.232899 1.41752e-05 0)
(0.232748 1.38391e-05 0)
(0.232596 1.36368e-05 0)
(0.23245 1.33555e-05 0)
(0.232304 1.31162e-05 0)
(0.232164 1.27537e-05 0)
(0.232024 1.2509e-05 0)
(0.231889 1.23459e-05 0)
(0.231754 1.20947e-05 0)
(0.231626 1.17862e-05 0)
(0.231495 1.17416e-05 0)
(0.23137 1.14916e-05 0)
(0.231245 1.13638e-05 0)
(0.231124 1.11335e-05 0)
(0.231002 1.09144e-05 0)
(0.230886 1.0648e-05 0)
(0.230769 1.04599e-05 0)
(0.230659 1.01089e-05 0)
(0.230545 1.00215e-05 0)
(0.230441 9.77277e-06 0)
(0.230328 9.93464e-06 0)
(0.230229 9.41881e-06 0)
(0.230117 9.60619e-06 0)
(0.230023 9.2407e-06 0)
(0.229908 9.59454e-06 0)
(0.229822 8.86349e-06 0)
(0.229702 9.61742e-06 0)
(0.229626 8.59457e-06 0)
(0.229498 9.89779e-06 0)
(0.229431 8.00594e-06 0)
(0.229297 1.03105e-05 0)
(0.229238 6.97601e-06 0)
(0.229106 1.0057e-05 0)
(0.229061 5.09163e-06 0)
(0.228928 8.62444e-06 0)
(0.22894 -2.03082e-06 0)
(0.228811 1.71534e-05 0)
(1.00819 0.0653172 0)
(0.99085 0.0518137 0)
(0.927089 0.0301994 0)
(0.830991 0.0178219 0)
(0.755584 0.0112163 0)
(0.697514 0.00756663 0)
(0.652395 0.00535915 0)
(0.617047 0.00401812 0)
(0.588726 0.00314415 0)
(0.565663 0.00257545 0)
(0.546413 0.00214625 0)
(0.530291 0.00181159 0)
(0.516453 0.00157281 0)
(0.504544 0.001353 0)
(0.494126 0.00118369 0)
(0.484976 0.00105634 0)
(0.476744 0.000952416 0)
(0.469423 0.000864797 0)
(0.462747 0.000791925 0)
(0.456716 0.000723872 0)
(0.451174 0.000671031 0)
(0.446095 0.000623011 0)
(0.441398 0.000581776 0)
(0.437036 0.000541924 0)
(0.433008 0.000506602 0)
(0.429228 0.000479655 0)
(0.425691 0.000452258 0)
(0.422365 0.00042969 0)
(0.419231 0.000406613 0)
(0.41628 0.000387149 0)
(0.413482 0.000368415 0)
(0.410829 0.000352953 0)
(0.408305 0.000336909 0)
(0.40591 0.000322531 0)
(0.403621 0.000309972 0)
(0.401437 0.000297712 0)
(0.399346 0.0002853 0)
(0.397351 0.00027549 0)
(0.395426 0.000265258 0)
(0.393591 0.000255704 0)
(0.391816 0.000247685 0)
(0.390115 0.000238806 0)
(0.388471 0.000231635 0)
(0.38689 0.000223477 0)
(0.385363 0.00021695 0)
(0.383889 0.0002104 0)
(0.382459 0.000204606 0)
(0.38108 0.00019814 0)
(0.379742 0.000193075 0)
(0.378447 0.000187111 0)
(0.377191 0.000182174 0)
(0.375973 0.000177264 0)
(0.374789 0.000172902 0)
(0.37364 0.000168142 0)
(0.372523 0.000163954 0)
(0.371437 0.000159731 0)
(0.370381 0.00015579 0)
(0.369352 0.000152228 0)
(0.36835 0.000148412 0)
(0.367375 0.000145061 0)
(0.366423 0.000141569 0)
(0.365496 0.000138452 0)
(0.36459 0.000135282 0)
(0.363708 0.00013222 0)
(0.362845 0.00012956 0)
(0.362003 0.0001266 0)
(0.36118 0.000124033 0)
(0.360376 0.000121226 0)
(0.35959 0.000118841 0)
(0.358822 0.000116284 0)
(0.35807 0.000113969 0)
(0.357335 0.000111678 0)
(0.356615 0.000109568 0)
(0.35591 0.000107338 0)
(0.35522 0.000105287 0)
(0.354544 0.000103235 0)
(0.353882 0.000101261 0)
(0.353232 9.93501e-05 0)
(0.352597 9.74163e-05 0)
(0.351973 9.57511e-05 0)
(0.351363 9.391e-05 0)
(0.350762 9.2319e-05 0)
(0.350175 9.05411e-05 0)
(0.349597 8.90522e-05 0)
(0.349031 8.73517e-05 0)
(0.348475 8.59213e-05 0)
(0.347929 8.43333e-05 0)
(0.347393 8.29503e-05 0)
(0.346868 8.14819e-05 0)
(0.34635 8.01899e-05 0)
(0.345843 7.87495e-05 0)
(0.345344 7.75391e-05 0)
(0.344854 7.61437e-05 0)
(0.344372 7.50074e-05 0)
(0.343899 7.36667e-05 0)
(0.343433 7.25699e-05 0)
(0.342976 7.13278e-05 0)
(0.342526 7.02471e-05 0)
(0.342083 6.90955e-05 0)
(0.341648 6.80647e-05 0)
(0.34122 6.69496e-05 0)
(0.340798 6.59657e-05 0)
(0.340384 6.48952e-05 0)
(0.339976 6.39547e-05 0)
(0.339574 6.29443e-05 0)
(0.339179 6.20187e-05 0)
(0.33879 6.10945e-05 0)
(0.338407 6.01636e-05 0)
(0.33803 5.93331e-05 0)
(0.337659 5.8425e-05 0)
(0.337292 5.76327e-05 0)
(0.336932 5.67645e-05 0)
(0.336577 5.60121e-05 0)
(0.336227 5.51818e-05 0)
(0.335882 5.4482e-05 0)
(0.335542 5.36924e-05 0)
(0.335206 5.29987e-05 0)
(0.334876 5.22523e-05 0)
(0.33455 5.15756e-05 0)
(0.334228 5.08682e-05 0)
(0.333912 5.01892e-05 0)
(0.333599 4.94561e-05 0)
(0.333292 4.87853e-05 0)
(0.332988 4.80257e-05 0)
(0.33269 4.73376e-05 0)
(0.332396 4.65946e-05 0)
(0.332107 4.59053e-05 0)
(0.331821 4.52213e-05 0)
(0.331541 4.45605e-05 0)
(0.331263 4.39158e-05 0)
(0.330991 4.33112e-05 0)
(0.330721 4.28273e-05 0)
(0.330455 4.23544e-05 0)
(0.33019 4.19923e-05 0)
(0.32993 4.1654e-05 0)
(0.329669 4.14567e-05 0)
(0.329412 4.12571e-05 0)
(0.329153 4.11578e-05 0)
(0.328899 4.10523e-05 0)
(0.328642 4.1069e-05 0)
(0.328388 4.10372e-05 0)
(0.328132 4.10972e-05 0)
(0.32788 4.112e-05 0)
(0.327624 4.11729e-05 0)
(0.327373 4.1076e-05 0)
(0.327119 4.1092e-05 0)
(0.326869 4.1062e-05 0)
(0.326617 4.11336e-05 0)
(0.326368 4.1129e-05 0)
(0.326116 4.12073e-05 0)
(0.325869 4.10476e-05 0)
(0.325621 4.07901e-05 0)
(0.325379 4.0255e-05 0)
(0.325136 3.99151e-05 0)
(0.3249 3.94052e-05 0)
(0.324663 3.89366e-05 0)
(0.324435 3.811e-05 0)
(0.324206 3.73799e-05 0)
(0.323987 3.65693e-05 0)
(0.323768 3.60324e-05 0)
(0.323557 3.53508e-05 0)
(0.323344 3.50356e-05 0)
(0.323139 3.46152e-05 0)
(0.322933 3.41709e-05 0)
(0.322735 3.34535e-05 0)
(0.322536 3.29397e-05 0)
(0.322343 3.2262e-05 0)
(0.322153 3.16476e-05 0)
(0.321968 3.08919e-05 0)
(0.321785 3.02895e-05 0)
(0.321607 2.98295e-05 0)
(0.321431 2.91835e-05 0)
(0.321262 2.85422e-05 0)
(0.321091 2.83133e-05 0)
(0.320926 2.77204e-05 0)
(0.320763 2.73277e-05 0)
(0.320604 2.68892e-05 0)
(0.320443 2.63281e-05 0)
(0.320292 2.57335e-05 0)
(0.320138 2.51981e-05 0)
(0.319994 2.4588e-05 0)
(0.319843 2.42216e-05 0)
(0.319706 2.37751e-05 0)
(0.319558 2.38074e-05 0)
(0.319427 2.30243e-05 0)
(0.31928 2.30563e-05 0)
(0.319157 2.26006e-05 0)
(0.319007 2.28329e-05 0)
(0.318893 2.19329e-05 0)
(0.318737 2.27089e-05 0)
(0.318634 2.14156e-05 0)
(0.31847 2.30042e-05 0)
(0.318379 2.04086e-05 0)
(0.318207 2.36019e-05 0)
(0.318126 1.85177e-05 0)
(0.317955 2.2842e-05 0)
(0.317888 1.52593e-05 0)
(0.317719 2.00623e-05 0)
(0.317706 1.45752e-06 0)
(0.317555 3.0241e-05 0)
(1.0114 0.0502387 0)
(1.03997 0.048747 0)
(1.02553 0.0348174 0)
(0.984217 0.0254167 0)
(0.930308 0.0186102 0)
(0.877831 0.0138909 0)
(0.829978 0.0105623 0)
(0.787814 0.00828084 0)
(0.751553 0.00664238 0)
(0.720527 0.00547707 0)
(0.694096 0.0045818 0)
(0.67134 0.00388194 0)
(0.651696 0.00335533 0)
(0.634556 0.00290219 0)
(0.619478 0.00254326 0)
(0.606144 0.00226165 0)
(0.594224 0.00202809 0)
(0.583584 0.00183158 0)
(0.573945 0.00166742 0)
(0.565227 0.00151949 0)
(0.557259 0.00139925 0)
(0.549976 0.00129183 0)
(0.543268 0.00119975 0)
(0.537066 0.00111349 0)
(0.53134 0.00103755 0)
(0.525993 0.000976197 0)
(0.521011 0.000916725 0)
(0.516343 0.000866245 0)
(0.511961 0.000816717 0)
(0.50785 0.000774149 0)
(0.503963 0.000734484 0)
(0.500292 0.000700071 0)
(0.496813 0.000666077 0)
(0.49352 0.000635448 0)
(0.490385 0.000608173 0)
(0.487405 0.000582398 0)
(0.484556 0.000557051 0)
(0.481846 0.000535727 0)
(0.479242 0.000514442 0)
(0.476763 0.000494616 0)
(0.474375 0.000477512 0)
(0.472089 0.000459558 0)
(0.469888 0.000444304 0)
(0.467775 0.000428116 0)
(0.465738 0.000414403 0)
(0.463778 0.00040105 0)
(0.461882 0.000388937 0)
(0.460056 0.000376183 0)
(0.458288 0.000365535 0)
(0.45658 0.000353889 0)
(0.454928 0.000343803 0)
(0.453329 0.000334007 0)
(0.451777 0.000325088 0)
(0.450273 0.00031576 0)
(0.448815 0.000307384 0)
(0.447398 0.000299086 0)
(0.446023 0.000291253 0)
(0.444686 0.000284103 0)
(0.443386 0.000276716 0)
(0.442121 0.00027006 0)
(0.44089 0.000263291 0)
(0.439692 0.000257128 0)
(0.438523 0.000250975 0)
(0.437386 0.000245035 0)
(0.436276 0.000239729 0)
(0.435194 0.000234098 0)
(0.434137 0.000229057 0)
(0.433107 0.000223745 0)
(0.4321 0.000219058 0)
(0.431117 0.000214204 0)
(0.430157 0.000209713 0)
(0.429218 0.00020532 0)
(0.4283 0.000201237 0)
(0.427402 0.000197017 0)
(0.426524 0.000193086 0)
(0.425664 0.000189186 0)
(0.424823 0.000185435 0)
(0.423999 0.000181801 0)
(0.423194 0.000178169 0)
(0.422403 0.000174932 0)
(0.42163 0.000171516 0)
(0.420871 0.000168447 0)
(0.420128 0.000165161 0)
(0.419399 0.000162282 0)
(0.418684 0.000159155 0)
(0.417983 0.000156402 0)
(0.417296 0.000153479 0)
(0.416621 0.000150834 0)
(0.415959 0.000148119 0)
(0.415309 0.000145652 0)
(0.414671 0.000143014 0)
(0.414044 0.000140695 0)
(0.41343 0.000138153 0)
(0.412825 0.000135971 0)
(0.412232 0.000133537 0)
(0.411649 0.000131442 0)
(0.411076 0.000129176 0)
(0.410513 0.000127131 0)
(0.409959 0.00012502 0)
(0.409415 0.000123082 0)
(0.40888 0.000121043 0)
(0.408354 0.000119194 0)
(0.407836 0.000117238 0)
(0.407328 0.000115475 0)
(0.406827 0.000113625 0)
(0.406335 0.000111905 0)
(0.40585 0.000110195 0)
(0.405373 0.000108489 0)
(0.404903 0.00010693 0)
(0.404441 0.000105282 0)
(0.403986 0.000103793 0)
(0.403538 0.000102217 0)
(0.403097 0.000100806 0)
(0.402663 9.92991e-05 0)
(0.402234 9.79754e-05 0)
(0.401813 9.65416e-05 0)
(0.401397 9.52418e-05 0)
(0.400987 9.38801e-05 0)
(0.400584 9.26128e-05 0)
(0.400186 9.13115e-05 0)
(0.399794 9.00578e-05 0)
(0.399408 8.87239e-05 0)
(0.399028 8.74839e-05 0)
(0.398653 8.61188e-05 0)
(0.398285 8.4868e-05 0)
(0.397921 8.3536e-05 0)
(0.397564 8.22959e-05 0)
(0.397211 8.10643e-05 0)
(0.396865 7.98872e-05 0)
(0.396522 7.8738e-05 0)
(0.396186 7.76705e-05 0)
(0.395852 7.67808e-05 0)
(0.395524 7.59429e-05 0)
(0.395197 7.52634e-05 0)
(0.394876 7.46465e-05 0)
(0.394555 7.42327e-05 0)
(0.394238 7.38407e-05 0)
(0.393921 7.35901e-05 0)
(0.393608 7.33506e-05 0)
(0.393294 7.32755e-05 0)
(0.392983 7.31543e-05 0)
(0.392671 7.31439e-05 0)
(0.392363 7.30835e-05 0)
(0.392052 7.30344e-05 0)
(0.391747 7.28098e-05 0)
(0.39144 7.27154e-05 0)
(0.391137 7.25528e-05 0)
(0.390833 7.25321e-05 0)
(0.390533 7.24126e-05 0)
(0.390231 7.23261e-05 0)
(0.389936 7.1921e-05 0)
(0.389639 7.13473e-05 0)
(0.389351 7.04422e-05 0)
(0.389061 6.97497e-05 0)
(0.388779 6.88175e-05 0)
(0.388498 6.79039e-05 0)
(0.388225 6.65252e-05 0)
(0.387954 6.52157e-05 0)
(0.387692 6.38191e-05 0)
(0.387432 6.27924e-05 0)
(0.387181 6.16469e-05 0)
(0.386929 6.09627e-05 0)
(0.386686 6.01341e-05 0)
(0.386442 5.92669e-05 0)
(0.386207 5.80782e-05 0)
(0.385972 5.71583e-05 0)
(0.385745 5.59957e-05 0)
(0.385519 5.49221e-05 0)
(0.385301 5.36969e-05 0)
(0.385084 5.26397e-05 0)
(0.384874 5.17785e-05 0)
(0.384665 5.06425e-05 0)
(0.384464 4.96037e-05 0)
(0.384262 4.90978e-05 0)
(0.384068 4.80828e-05 0)
(0.383874 4.73423e-05 0)
(0.383686 4.66453e-05 0)
(0.383497 4.56589e-05 0)
(0.383318 4.46777e-05 0)
(0.383136 4.37102e-05 0)
(0.382965 4.28222e-05 0)
(0.382787 4.20826e-05 0)
(0.382624 4.14165e-05 0)
(0.382449 4.1186e-05 0)
(0.382294 4.01655e-05 0)
(0.38212 3.9911e-05 0)
(0.381974 3.94087e-05 0)
(0.381797 3.93646e-05 0)
(0.381662 3.84152e-05 0)
(0.381479 3.90109e-05 0)
(0.381356 3.76066e-05 0)
(0.381165 3.92085e-05 0)
(0.381054 3.61863e-05 0)
(0.380855 3.9849e-05 0)
(0.380757 3.34443e-05 0)
(0.380557 3.8589e-05 0)
(0.380472 2.88055e-05 0)
(0.380276 3.36527e-05 0)
(0.380241 8.71736e-06 0)
(0.380064 4.41605e-05 0)
(1.00996 0.0450831 0)
(1.05306 0.0485502 0)
(1.05269 0.0361578 0)
(1.04254 0.0289502 0)
(1.01961 0.0233616 0)
(0.98862 0.0190721 0)
(0.954427 0.0156867 0)
(0.91899 0.0130653 0)
(0.88453 0.0109461 0)
(0.85197 0.00927072 0)
(0.822304 0.00788791 0)
(0.795482 0.00676173 0)
(0.771522 0.00586875 0)
(0.750129 0.00511023 0)
(0.731023 0.0044969 0)
(0.713895 0.0040012 0)
(0.698524 0.00358226 0)
(0.684705 0.00322953 0)
(0.672169 0.00293344 0)
(0.660783 0.00266916 0)
(0.650398 0.00244936 0)
(0.640887 0.00225508 0)
(0.632138 0.00208744 0)
(0.624056 0.00193338 0)
(0.616591 0.00179784 0)
(0.609637 0.00168461 0)
(0.60317 0.00157741 0)
(0.597123 0.00148518 0)
(0.591459 0.00139658 0)
(0.586154 0.00131985 0)
(0.581148 0.00124928 0)
(0.576433 0.00118652 0)
(0.571974 0.0011262 0)
(0.56776 0.00107174 0)
(0.563759 0.00102267 0)
(0.559963 0.000977122 0)
(0.55634 0.000933144 0)
(0.5529 0.000894838 0)
(0.549604 0.000857499 0)
(0.546469 0.000822815 0)
(0.543457 0.000792414 0)
(0.540578 0.000761394 0)
(0.537813 0.000734401 0)
(0.535161 0.00070685 0)
(0.53261 0.000682744 0)
(0.530158 0.000659561 0)
(0.527793 0.000638345 0)
(0.525516 0.000616704 0)
(0.523318 0.000598006 0)
(0.521196 0.000578382 0)
(0.519147 0.000560998 0)
(0.517165 0.000544278 0)
(0.515247 0.000528854 0)
(0.513389 0.000513153 0)
(0.51159 0.000498877 0)
(0.509844 0.00048488 0)
(0.508153 0.00047159 0)
(0.50651 0.000459387 0)
(0.504914 0.000447051 0)
(0.503365 0.000435775 0)
(0.501856 0.000424473 0)
(0.500391 0.000414061 0)
(0.498963 0.000403792 0)
(0.497576 0.000393874 0)
(0.496222 0.000384876 0)
(0.494905 0.000375589 0)
(0.493619 0.000367127 0)
(0.492366 0.000358405 0)
(0.491144 0.000350543 0)
(0.489951 0.000342559 0)
(0.488787 0.000335089 0)
(0.48765 0.000327823 0)
(0.486539 0.000321034 0)
(0.485453 0.000314115 0)
(0.484392 0.000307628 0)
(0.483354 0.000301224 0)
(0.48234 0.000295065 0)
(0.481346 0.000289103 0)
(0.480376 0.000283183 0)
(0.479425 0.000277808 0)
(0.478494 0.000272279 0)
(0.477582 0.000267207 0)
(0.476689 0.000261908 0)
(0.475814 0.000257147 0)
(0.474957 0.000252121 0)
(0.474116 0.000247585 0)
(0.473292 0.000242886 0)
(0.472484 0.000238547 0)
(0.471692 0.000234171 0)
(0.470914 0.000230128 0)
(0.470152 0.000225904 0)
(0.469403 0.000222098 0)
(0.468668 0.000218045 0)
(0.467947 0.000214459 0)
(0.467239 0.000210589 0)
(0.466543 0.000207159 0)
(0.46586 0.000203543 0)
(0.465189 0.000200214 0)
(0.46453 0.00019684 0)
(0.463882 0.000193697 0)
(0.463246 0.000190442 0)
(0.46262 0.000187446 0)
(0.462005 0.000184329 0)
(0.4614 0.000181476 0)
(0.460805 0.000178526 0)
(0.460221 0.000175755 0)
(0.459645 0.000173013 0)
(0.45908 0.000170289 0)
(0.458523 0.000167767 0)
(0.457976 0.000165149 0)
(0.457436 0.00016274 0)
(0.456906 0.000160239 0)
(0.456383 0.000157954 0)
(0.455869 0.000155564 0)
(0.455363 0.000153412 0)
(0.454864 0.000151135 0)
(0.454373 0.000149033 0)
(0.453889 0.000146867 0)
(0.453413 0.000144821 0)
(0.452944 0.000142742 0)
(0.452481 0.000140735 0)
(0.452026 0.000138625 0)
(0.451578 0.000136643 0)
(0.451136 0.000134505 0)
(0.450702 0.000132527 0)
(0.450273 0.000130446 0)
(0.449853 0.000128502 0)
(0.449437 0.000126571 0)
(0.449029 0.000124735 0)
(0.448625 0.000122945 0)
(0.448229 0.000121285 0)
(0.447836 0.000119862 0)
(0.44745 0.000118542 0)
(0.447065 0.000117432 0)
(0.446687 0.000116433 0)
(0.44631 0.000115697 0)
(0.445938 0.000115015 0)
(0.445567 0.000114519 0)
(0.4452 0.000114056 0)
(0.444833 0.000113796 0)
(0.44447 0.000113497 0)
(0.444107 0.00011332 0)
(0.443748 0.000113083 0)
(0.443388 0.000112829 0)
(0.443034 0.000112381 0)
(0.442679 0.000112079 0)
(0.442329 0.000111676 0)
(0.441979 0.000111444 0)
(0.441634 0.000111085 0)
(0.441288 0.000110702 0)
(0.440949 0.000109928 0)
(0.44061 0.000108914 0)
(0.44028 0.000107525 0)
(0.43995 0.000106359 0)
(0.439629 0.000104887 0)
(0.439308 0.000103409 0)
(0.438997 0.000101367 0)
(0.438688 9.93505e-05 0)
(0.43839 9.72319e-05 0)
(0.438093 9.55734e-05 0)
(0.437807 9.38304e-05 0)
(0.437521 9.26355e-05 0)
(0.437244 9.12689e-05 0)
(0.436968 8.9863e-05 0)
(0.436701 8.80974e-05 0)
(0.436435 8.66649e-05 0)
(0.436177 8.49256e-05 0)
(0.435922 8.33071e-05 0)
(0.435673 8.15221e-05 0)
(0.435427 7.99069e-05 0)
(0.435189 7.85359e-05 0)
(0.434952 7.68121e-05 0)
(0.434724 7.53009e-05 0)
(0.434496 7.44169e-05 0)
(0.434275 7.28986e-05 0)
(0.434056 7.17271e-05 0)
(0.433843 7.06973e-05 0)
(0.433629 6.92007e-05 0)
(0.433425 6.77744e-05 0)
(0.433219 6.62954e-05 0)
(0.433024 6.50875e-05 0)
(0.432823 6.38896e-05 0)
(0.432637 6.29672e-05 0)
(0.432439 6.23488e-05 0)
(0.432263 6.10794e-05 0)
(0.432067 6.04343e-05 0)
(0.4319 5.98836e-05 0)
(0.431702 5.94509e-05 0)
(0.431547 5.84951e-05 0)
(0.431343 5.87837e-05 0)
(0.4312 5.73395e-05 0)
(0.430989 5.8782e-05 0)
(0.43086 5.54803e-05 0)
(0.43064 5.93229e-05 0)
(0.430525 5.18894e-05 0)
(0.430302 5.75876e-05 0)
(0.430201 4.58084e-05 0)
(0.429981 5.04552e-05 0)
(0.429927 1.97516e-05 0)
(0.429721 5.97575e-05 0)
(1.00868 0.0410967 0)
(1.05097 0.0471189 0)
(1.05922 0.0351969 0)
(1.05737 0.0295423 0)
(1.05143 0.0253018 0)
(1.03899 0.0217757 0)
(1.02199 0.0190023 0)
(1.00103 0.0167634 0)
(0.977522 0.0147762 0)
(0.952116 0.0130537 0)
(0.926175 0.0114844 0)
(0.900542 0.0101015 0)
(0.87598 0.00891852 0)
(0.852919 0.00786979 0)
(0.831587 0.00698795 0)
(0.81192 0.00624966 0)
(0.793922 0.00561021 0)
(0.777493 0.00506594 0)
(0.762447 0.00460395 0)
(0.748652 0.00419138 0)
(0.73602 0.00384166 0)
(0.72439 0.0035336 0)
(0.713668 0.00326613 0)
(0.703739 0.00302227 0)
(0.694555 0.00280696 0)
(0.686004 0.00262385 0)
(0.678044 0.00245271 0)
(0.670605 0.00230389 0)
(0.663643 0.00216278 0)
(0.657121 0.00203992 0)
(0.650976 0.00192739 0)
(0.645192 0.00182616 0)
(0.639731 0.00173037 0)
(0.634572 0.00164371 0)
(0.629681 0.00156505 0)
(0.625046 0.00149284 0)
(0.620629 0.00142386 0)
(0.616437 0.00136252 0)
(0.61243 0.00130359 0)
(0.60862 0.00124894 0)
(0.604966 0.0012005 0)
(0.601478 0.00115195 0)
(0.598133 0.00110915 0)
(0.594927 0.00106646 0)
(0.591848 0.0010284 0)
(0.588892 0.000992002 0)
(0.586046 0.000958567 0)
(0.583308 0.000925133 0)
(0.580668 0.000895627 0)
(0.578124 0.000865465 0)
(0.575669 0.000838401 0)
(0.573297 0.000812464 0)
(0.571004 0.000788382 0)
(0.568786 0.000764312 0)
(0.56664 0.00074221 0)
(0.56456 0.000720708 0)
(0.562546 0.000700232 0)
(0.560593 0.000681353 0)
(0.558698 0.000662545 0)
(0.556858 0.000645193 0)
(0.55507 0.000627967 0)
(0.553334 0.000611979 0)
(0.551644 0.000596335 0)
(0.550003 0.000581226 0)
(0.548404 0.000567389 0)
(0.546848 0.000553358 0)
(0.545332 0.00054043 0)
(0.543856 0.000527304 0)
(0.542416 0.000515312 0)
(0.541012 0.000503281 0)
(0.539643 0.000491952 0)
(0.538307 0.00048097 0)
(0.537003 0.000470669 0)
(0.535728 0.000460278 0)
(0.534484 0.000450494 0)
(0.533268 0.000440872 0)
(0.53208 0.000431616 0)
(0.530918 0.000422669 0)
(0.529782 0.000413819 0)
(0.52867 0.00040569 0)
(0.527583 0.000397464 0)
(0.526518 0.000389818 0)
(0.525477 0.000381954 0)
(0.524456 0.00037478 0)
(0.523456 0.000367345 0)
(0.522477 0.000360529 0)
(0.521518 0.000353578 0)
(0.520577 0.000347078 0)
(0.519656 0.000340593 0)
(0.518751 0.000334542 0)
(0.517865 0.000328312 0)
(0.516995 0.000322611 0)
(0.516142 0.000316653 0)
(0.515305 0.00031128 0)
(0.514484 0.000305605 0)
(0.513677 0.000300479 0)
(0.512886 0.000295163 0)
(0.512108 0.00029021 0)
(0.511345 0.000285246 0)
(0.510595 0.000280578 0)
(0.509858 0.000275796 0)
(0.509135 0.000271349 0)
(0.508423 0.000266779 0)
(0.507724 0.000262547 0)
(0.507037 0.000258219 0)
(0.506362 0.000254126 0)
(0.505697 0.000250086 0)
(0.505045 0.000246087 0)
(0.504402 0.00024235 0)
(0.503771 0.000238519 0)
(0.503149 0.00023495 0)
(0.502538 0.00023129 0)
(0.501936 0.000227905 0)
(0.501344 0.000224408 0)
(0.500761 0.00022121 0)
(0.500187 0.000217877 0)
(0.499622 0.000214766 0)
(0.499066 0.000211591 0)
(0.498518 0.000208568 0)
(0.497979 0.000205517 0)
(0.497448 0.000202568 0)
(0.496925 0.000199496 0)
(0.49641 0.000196591 0)
(0.495903 0.000193507 0)
(0.495405 0.000190629 0)
(0.494913 0.000187634 0)
(0.494431 0.000184826 0)
(0.493954 0.000182037 0)
(0.493486 0.00017939 0)
(0.493023 0.000176817 0)
(0.492568 0.000174426 0)
(0.492118 0.000172333 0)
(0.491675 0.000170398 0)
(0.491235 0.000168731 0)
(0.490802 0.000167227 0)
(0.490371 0.000166047 0)
(0.489946 0.000164958 0)
(0.489523 0.000164102 0)
(0.489104 0.000163303 0)
(0.488687 0.000162743 0)
(0.488275 0.000162154 0)
(0.487863 0.000161693 0)
(0.487456 0.000161164 0)
(0.487049 0.000160581 0)
(0.486649 0.000159795 0)
(0.486249 0.000159168 0)
(0.485855 0.0001584 0)
(0.485461 0.000157814 0)
(0.485074 0.000157065 0)
(0.484687 0.00015624 0)
(0.484308 0.000154965 0)
(0.48393 0.000153379 0)
(0.483562 0.000151383 0)
(0.483194 0.000149615 0)
(0.482836 0.000147481 0)
(0.48248 0.000145316 0)
(0.482133 0.000142505 0)
(0.481789 0.000139661 0)
(0.481457 0.000136689 0)
(0.481128 0.000134256 0)
(0.480809 0.000131777 0)
(0.480491 0.000129926 0)
(0.480184 0.000127892 0)
(0.479878 0.000125833 0)
(0.479582 0.000123388 0)
(0.479287 0.000121331 0)
(0.479002 0.000118924 0)
(0.478718 0.000116677 0)
(0.478443 0.000114246 0)
(0.47817 0.000111974 0)
(0.477906 0.000109985 0)
(0.477644 0.00010758 0)
(0.477391 0.000105527 0)
(0.477138 0.000104157 0)
(0.476893 0.000102058 0)
(0.47665 0.000100379 0)
(0.476414 9.89311e-05 0)
(0.476178 9.68426e-05 0)
(0.475952 9.49165e-05 0)
(0.475723 9.28563e-05 0)
(0.475507 9.12777e-05 0)
(0.475284 8.95473e-05 0)
(0.475078 8.83241e-05 0)
(0.474859 8.71986e-05 0)
(0.474663 8.56463e-05 0)
(0.474447 8.453e-05 0)