/*--------------------------------*- C++ -*----------------------------------*\
  =========                 |
  \\      /  F ield         | OpenFOAM: The Open Source CFD Toolbox
   \\    /   O peration     | Website:  https://openfoam.org
    \\  /    A nd           | Version:  12
     \\/     M anipulation  |
\*---------------------------------------------------------------------------*/
FoamFile
{
    format      ascii;
    class       volScalarField;
    location    "600";
    object      nut;
}
// * * * * * * * * * * * * * * * * * * * * * * * * * * * * * * * * * * * * * //

dimensions      [0 2 -1 0 0 0 0];

internalField   nonuniform List<scalar> 
20000
(
1.76054e-06
6.613e-07
7.32518e-07
9.77253e-07
1.13925e-06
1.26692e-06
1.39294e-06
1.52792e-06
1.6401e-06
1.74268e-06
1.81164e-06
1.88682e-06
1.93494e-06
1.98287e-06
2.02372e-06
2.06124e-06
2.08981e-06
2.11446e-06
2.13397e-06
2.15175e-06
2.16518e-06
2.17649e-06
2.18531e-06
2.1923e-06
2.19818e-06
2.20205e-06
2.20488e-06
2.20662e-06
2.20706e-06
2.20681e-06
2.20606e-06
2.20448e-06
2.20229e-06
2.19979e-06
2.19673e-06
2.19336e-06
2.18982e-06
2.18594e-06
2.18169e-06
2.17744e-06
2.17289e-06
2.16832e-06
2.16356e-06
2.15874e-06
2.15386e-06
2.1489e-06
2.14383e-06
2.13879e-06
2.13364e-06
2.12856e-06
2.12342e-06
2.11834e-06
2.11318e-06
2.10808e-06
2.10301e-06
2.09796e-06
2.09292e-06
2.08792e-06
2.08296e-06
2.07804e-06
2.07315e-06
2.06831e-06
2.06349e-06
2.05874e-06
2.054e-06
2.04934e-06
2.04471e-06
2.04015e-06
2.03562e-06
2.03114e-06
2.02671e-06
2.02234e-06
2.01801e-06
2.01373e-06
2.0095e-06
2.00532e-06
2.00119e-06
1.99712e-06
1.99309e-06
1.98911e-06
1.98518e-06
1.9813e-06
1.97747e-06
1.97369e-06
1.96995e-06
1.96626e-06
1.96261e-06
1.95902e-06
1.95547e-06
1.95196e-06
1.9485e-06
1.94508e-06
1.94171e-06
1.93838e-06
1.93509e-06
1.93184e-06
1.92863e-06
1.92546e-06
1.92234e-06
1.91926e-06
1.91621e-06
1.9132e-06
1.91024e-06
1.9073e-06
1.90441e-06
1.90155e-06
1.89873e-06
1.89595e-06
1.8932e-06
1.89049e-06
1.8878e-06
1.88516e-06
1.88254e-06
1.87997e-06
1.87742e-06
1.8749e-06
1.87242e-06
1.86997e-06
1.86754e-06
1.86515e-06
1.86279e-06
1.86046e-06
1.85815e-06
1.85588e-06
1.85364e-06
1.85142e-06
1.84923e-06
1.84706e-06
1.84493e-06
1.84282e-06
1.84073e-06
1.83868e-06
1.83664e-06
1.83464e-06
1.83265e-06
1.83069e-06
1.82876e-06
1.82685e-06
1.82496e-06
1.8231e-06
1.82126e-06
1.81944e-06
1.81764e-06
1.81587e-06
1.81412e-06
1.81238e-06
1.81067e-06
1.80898e-06
1.80731e-06
1.80567e-06
1.80404e-06
1.80243e-06
1.80084e-06
1.79927e-06
1.79771e-06
1.79618e-06
1.79467e-06
1.79317e-06
1.7917e-06
1.79024e-06
1.7888e-06
1.78738e-06
1.78598e-06
1.78459e-06
1.78322e-06
1.78187e-06
1.78053e-06
1.77921e-06
1.77791e-06
1.77662e-06
1.77535e-06
1.77409e-06
1.77283e-06
1.77159e-06
1.77035e-06
1.76913e-06
1.76792e-06
1.76672e-06
1.76553e-06
1.76434e-06
1.76317e-06
1.762e-06
1.76086e-06
1.7597e-06
1.75861e-06
1.75746e-06
1.75642e-06
1.75527e-06
1.75432e-06
1.75315e-06
1.75233e-06
1.75107e-06
1.75044e-06
1.74907e-06
1.74854e-06
1.74719e-06
1.74667e-06
1.74531e-06
1.74489e-06
1.74273e-06
3.08551e-05
2.66394e-05
2.94425e-05
3.91615e-05
4.70258e-05
5.46761e-05
6.26449e-05
7.10133e-05
7.83469e-05
8.51853e-05
9.04052e-05
9.59463e-05
9.99219e-05
0.000103957
0.000107521
0.000110816
0.000113592
0.000116101
0.000118293
0.000120326
0.000122077
0.000123667
0.000125078
0.000126349
0.000127511
0.000128528
0.000129454
0.000130285
0.000131015
0.000131676
0.000132281
0.000132812
0.000133287
0.000133719
0.000134098
0.000134439
0.000134751
0.000135023
0.000135259
0.000135476
0.00013566
0.000135828
0.00013597
0.000136095
0.000136204
0.000136294
0.000136368
0.000136431
0.000136478
0.000136517
0.000136544
0.000136563
0.000136569
0.00013657
0.000136564
0.000136551
0.000136531
0.000136506
0.000136476
0.000136441
0.000136401
0.000136357
0.000136309
0.000136259
0.000136204
0.000136147
0.000136088
0.000136026
0.000135962
0.000135897
0.000135829
0.000135759
0.000135688
0.000135616
0.000135543
0.000135469
0.000135394
0.000135318
0.000135242
0.000135164
0.000135087
0.000135009
0.000134931
0.000134852
0.000134773
0.000134694
0.000134615
0.000134536
0.000134457
0.000134378
0.000134299
0.000134221
0.000134142
0.000134063
0.000133985
0.000133907
0.00013383
0.000133752
0.000133675
0.000133599
0.000133523
0.000133447
0.000133371
0.000133296
0.000133222
0.000133148
0.000133074
0.000133002
0.000132929
0.000132857
0.000132785
0.000132714
0.000132644
0.000132574
0.000132504
0.000132436
0.000132367
0.0001323
0.000132233
0.000132166
0.0001321
0.000132035
0.00013197
0.000131905
0.000131842
0.000131778
0.000131716
0.000131654
0.000131592
0.000131531
0.000131471
0.000131411
0.000131352
0.000131294
0.000131236
0.000131178
0.000131121
0.000131065
0.000131009
0.000130954
0.000130899
0.000130845
0.000130791
0.000130738
0.000130686
0.000130634
0.000130583
0.000130532
0.000130481
0.000130431
0.000130382
0.000130333
0.000130285
0.000130237
0.00013019
0.000130143
0.000130097
0.000130052
0.000130006
0.000129962
0.000129918
0.000129874
0.000129831
0.000129789
0.000129747
0.000129706
0.000129665
0.000129624
0.000129584
0.000129545
0.000129506
0.000129467
0.000129429
0.00012939
0.000129352
0.000129314
0.000129276
0.000129239
0.000129202
0.000129165
0.000129128
0.000129092
0.000129056
0.000129021
0.000128986
0.000128952
0.000128919
0.000128886
0.000128856
0.000128822
0.000128798
0.00012876
0.000128746
0.000128702
0.000128695
0.000128652
0.000128645
0.000128604
0.000128604
0.000128508
0.000184616
6.3637e-05
4.74215e-05
5.26676e-05
6.47287e-05
8.1182e-05
9.89555e-05
0.000117424
0.000134277
0.000150405
0.000163996
0.000177867
0.000189178
0.000200382
0.000210622
0.000220249
0.000228705
0.000236594
0.000243729
0.000250425
0.00025642
0.000262003
0.000267113
0.00027185
0.000276259
0.000280292
0.000284029
0.000287499
0.000290692
0.000293668
0.000296462
0.000299029
0.000301421
0.000303666
0.000305747
0.000307696
0.00030954
0.000311249
0.00031284
0.000314348
0.000315753
0.000317082
0.000318325
0.000319496
0.000320604
0.000321641
0.000322615
0.000323539
0.000324403
0.000325227
0.000326
0.000326735
0.000327421
0.000328076
0.000328696
0.000329282
0.000329836
0.000330361
0.00033086
0.000331333
0.00033178
0.000332205
0.000332607
0.00033299
0.00033335
0.000333695
0.000334021
0.000334333
0.000334627
0.000334908
0.000335173
0.000335426
0.000335666
0.000335894
0.000336111
0.000336317
0.000336513
0.0003367
0.000336877
0.000337045
0.000337205
0.000337357
0.000337502
0.00033764
0.000337771
0.000337895
0.000338013
0.000338125
0.000338232
0.000338333
0.000338429
0.000338521
0.000338607
0.000338689
0.000338767
0.000338841
0.000338911
0.000338977
0.00033904
0.000339099
0.000339156
0.000339209
0.000339259
0.000339307
0.000339352
0.000339394
0.000339434
0.000339472
0.000339507
0.00033954
0.000339571
0.000339601
0.000339628
0.000339654
0.000339678
0.000339701
0.000339722
0.000339742
0.00033976
0.000339777
0.000339792
0.000339807
0.00033982
0.000339832
0.000339843
0.000339854
0.000339863
0.000339871
0.000339879
0.000339885
0.000339891
0.000339896
0.000339901
0.000339905
0.000339908
0.000339911
0.000339913
0.000339914
0.000339916
0.000339916
0.000339916
0.000339916
0.000339915
0.000339914
0.000339913
0.000339911
0.00033991
0.000339907
0.000339905
0.000339902
0.000339899
0.000339896
0.000339893
0.000339889
0.000339885
0.000339882
0.000339878
0.000339874
0.00033987
0.000339867
0.000339863
0.000339859
0.000339856
0.000339853
0.000339849
0.000339846
0.000339843
0.00033984
0.000339837
0.000339834
0.000339831
0.000339829
0.000339825
0.000339821
0.000339816
0.000339813
0.000339807
0.000339804
0.000339797
0.000339795
0.000339786
0.000339785
0.000339775
0.000339777
0.000339767
0.000339773
0.000339764
0.000339773
0.000339767
0.00033978
0.000339783
0.000339792
0.000339811
0.00033981
0.000339844
0.000339847
0.000339882
0.000339899
0.000339935
0.000339901
0.00074133
0.000184397
0.000105257
7.55547e-05
7.64302e-05
8.81204e-05
0.000104028
0.000124303
0.000145398
0.000167353
0.000187667
0.000208495
0.000227437
0.000245877
0.000263197
0.000279637
0.000294316
0.000308339
0.000321211
0.000333392
0.000344444
0.000354888
0.000364552
0.000373621
0.000382124
0.000390005
0.000397386
0.000404313
0.00041077
0.000416859
0.000422569
0.000427922
0.000432959
0.000437722
0.000442188
0.000446413
0.000450439
0.000454206
0.000457763
0.000461155
0.000464353
0.000467402
0.000470286
0.000473029
0.000475649
0.000478126
0.000480483
0.000482734
0.000484871
0.00048692
0.00048887
0.000490739
0.000492508
0.000494213
0.000495845
0.000497405
0.000498897
0.000500328
0.000501702
0.000503019
0.000504283
0.000505495
0.00050666
0.00050778
0.000508853
0.00050989
0.000510886
0.000511847
0.00051277
0.00051366
0.000514517
0.000515344
0.000516141
0.00051691
0.000517653
0.00051837
0.000519062
0.000519733
0.000520379
0.000521004
0.00052161
0.000522195
0.000522762
0.000523311
0.000523842
0.000524357
0.000524855
0.000525339
0.000525808
0.000526263
0.000526704
0.000527132
0.000527547
0.00052795
0.000528342
0.000528722
0.000529092
0.000529451
0.0005298
0.00053014
0.00053047
0.000530792
0.000531105
0.000531409
0.000531706
0.000531995
0.000532276
0.00053255
0.000532817
0.000533078
0.000533331
0.000533579
0.00053382
0.000534056
0.000534286
0.000534511
0.00053473
0.000534945
0.000535154
0.000535359
0.000535558
0.000535753
0.000535944
0.000536131
0.000536314
0.000536493
0.000536668
0.000536839
0.000537007
0.000537171
0.000537332
0.000537489
0.000537644
0.000537795
0.000537943
0.000538089
0.000538232
0.000538372
0.000538509
0.000538644
0.000538776
0.000538906
0.000539034
0.000539159
0.000539282
0.000539404
0.000539523
0.000539639
0.000539755
0.000539868
0.000539979
0.000540089
0.000540197
0.000540303
0.000540407
0.000540511
0.000540613
0.000540713
0.000540812
0.00054091
0.000541006
0.000541102
0.000541197
0.000541291
0.000541383
0.000541476
0.000541566
0.000541656
0.000541744
0.000541834
0.00054192
0.000542007
0.00054209
0.000542174
0.000542252
0.000542335
0.000542411
0.000542493
0.000542565
0.000542646
0.000542714
0.000542796
0.00054286
0.000542946
0.000543009
0.000543101
0.000543161
0.000543259
0.00054332
0.000543426
0.000543497
0.000543601
0.000543691
0.000543785
0.000543898
0.000543993
0.000544107
0.00054423
0.000544339
0.000544434
0.00150223
0.000491193
0.000263209
0.000158119
0.000116028
0.00010319
0.000105615
0.000117563
0.00013464
0.000157079
0.000180593
0.000205638
0.000230102
0.000253971
0.000276844
0.00029913
0.000319794
0.00033957
0.000358194
0.000375991
0.000392285
0.000408019
0.000422682
0.000436634
0.000449773
0.000462047
0.000473654
0.000484616
0.000494916
0.000504702
0.000513891
0.000522589
0.000530828
0.000538651
0.000546047
0.000553085
0.000559768
0.000566113
0.000572128
0.000577885
0.000583343
0.000588567
0.000593533
0.000598284
0.000602837
0.000607163
0.000611303
0.000615272
0.000619062
0.000622708
0.000626194
0.000629547
0.000632742
0.000635833
0.000638801
0.000641651
0.00064439
0.000647029
0.000649571
0.000652019
0.000654378
0.000656652
0.000658845
0.000660962
0.000663001
0.000664979
0.000666886
0.000668732
0.000670514
0.00067224
0.000673908
0.000675525
0.00067709
0.000678606
0.000680076
0.000681501
0.000682883
0.000684225
0.000685525
0.000686789
0.000688017
0.000689209
0.000690367
0.000691493
0.000692588
0.000693654
0.00069469
0.000695699
0.00069668
0.000697636
0.000698567
0.000699474
0.000700357
0.000701218
0.000702058
0.000702877
0.000703675
0.000704454
0.000705216
0.000705958
0.000706683
0.000707391
0.000708083
0.000708758
0.000709419
0.000710064
0.000710695
0.000711313
0.000711916
0.000712507
0.000713085
0.000713651
0.000714205
0.000714747
0.000715278
0.000715799
0.000716308
0.000716808
0.000717298
0.000717778
0.000718248
0.00071871
0.000719162
0.000719607
0.000720042
0.00072047
0.00072089
0.000721302
0.000721707
0.000722104
0.000722495
0.000722878
0.000723255
0.000723625
0.00072399
0.000724347
0.000724699
0.000725045
0.000725386
0.000725721
0.00072605
0.000726374
0.000726694
0.000727008
0.000727317
0.000727621
0.000727921
0.000728217
0.000728508
0.000728794
0.000729077
0.000729355
0.00072963
0.000729901
0.000730167
0.000730431
0.000730691
0.000730948
0.000731201
0.000731451
0.000731698
0.000731943
0.000732185
0.000732424
0.00073266
0.000732895
0.000733126
0.000733355
0.000733581
0.000733806
0.000734027
0.000734248
0.000734462
0.000734675
0.000734881
0.000735091
0.000735291
0.000735498
0.000735691
0.000735895
0.00073608
0.000736282
0.00073646
0.000736667
0.000736841
0.000737054
0.000737223
0.000737443
0.000737611
0.000737841
0.000738019
0.00073825
0.000738445
0.00073867
0.000738888
0.000739116
0.000739333
0.000739602
0.000739803
0.000740086
0.00202514
0.000999168
0.000588389
0.000356329
0.000242856
0.000176726
0.000145633
0.000134453
0.000134973
0.000145421
0.000161861
0.000183384
0.00020758
0.000233385
0.000259475
0.000285849
0.000311547
0.000336624
0.000360598
0.000383844
0.000405656
0.000426649
0.000446477
0.000465518
0.000483393
0.000500251
0.000516398
0.00053172
0.000546226
0.000560101
0.000573146
0.00058561
0.000597476
0.000608787
0.000619546
0.000629838
0.000639603
0.000648961
0.000657869
0.000666422
0.000674558
0.000682371
0.000689841
0.000696982
0.000703846
0.000710411
0.000716713
0.000722765
0.000728569
0.000734164
0.00073953
0.000744701
0.00074965
0.000754454
0.000759072
0.000763516
0.000767803
0.000771945
0.000775943
0.000779803
0.000783532
0.000787136
0.00079062
0.000793991
0.000797247
0.000800413
0.000803472
0.000806438
0.00080931
0.000812097
0.000814797
0.00081742
0.000819964
0.000822435
0.000824835
0.000827167
0.000829433
0.000831638
0.000833779
0.000835865
0.000837895
0.00083987
0.000841793
0.000843666
0.00084549
0.000847269
0.000849002
0.000850693
0.000852342
0.00085395
0.000855519
0.000857051
0.000858545
0.000860005
0.00086143
0.000862823
0.000864183
0.000865513
0.000866815
0.000868086
0.00086933
0.000870546
0.000871737
0.000872901
0.000874042
0.000875158
0.000876251
0.000877322
0.000878371
0.000879399
0.000880406
0.000881394
0.000882361
0.000883311
0.000884241
0.000885155
0.00088605
0.00088693
0.000887792
0.00088864
0.00088947
0.000890287
0.000891089
0.000891877
0.00089265
0.00089341
0.000894157
0.000894892
0.000895613
0.000896323
0.000897021
0.000897707
0.000898382
0.000899045
0.000899699
0.000900341
0.000900974
0.000901597
0.00090221
0.000902814
0.000903408
0.000903993
0.00090457
0.000905138
0.000905698
0.000906249
0.000906793
0.000907328
0.000907856
0.000908376
0.00090889
0.000909395
0.000909895
0.000910388
0.000910873
0.000911352
0.000911826
0.000912293
0.000912754
0.00091321
0.00091366
0.000914105
0.000914546
0.000914982
0.000915411
0.000915837
0.000916258
0.000916674
0.000917085
0.000917494
0.000917896
0.000918297
0.000918687
0.000919076
0.000919453
0.000919834
0.000920202
0.000920576
0.000920933
0.0009213
0.000921645
0.000922007
0.00092234
0.000922705
0.000923031
0.000923401
0.000923719
0.000924095
0.000924409
0.000924797
0.000925118
0.000925512
0.000925845
0.000926238
0.000926589
0.000926991
0.000927333
0.000927791
0.000928096
0.000928633
0.00226807
0.00154509
0.00104277
0.000696142
0.000495003
0.00035375
0.000271959
0.00021555
0.0001843
0.000169873
0.000166814
0.00017343
0.000187034
0.00020625
0.000228956
0.000254334
0.000280947
0.000308322
0.000335499
0.000362568
0.000388747
0.000414271
0.000438794
0.000462513
0.000485222
0.00050685
0.000527614
0.000547517
0.000566535
0.000584799
0.000601964
0.000618574
0.000634426
0.00064958
0.000664078
0.000677998
0.000691205
0.000703918
0.000716055
0.000727741
0.00073889
0.000749639
0.000759948
0.000769816
0.000779331
0.000788469
0.000797268
0.000805731
0.000813878
0.000821746
0.000829308
0.000836611
0.000843635
0.000850435
0.000857003
0.000863341
0.00086947
0.000875404
0.000881139
0.000886687
0.000892057
0.000897257
0.000902294
0.000907172
0.0009119
0.000916502
0.000920952
0.000925275
0.00092947
0.000933545
0.000937502
0.000941351
0.00094509
0.000948727
0.000952265
0.000955706
0.000959058
0.000962321
0.000965494
0.000968593
0.00097161
0.000974549
0.000977415
0.000980211
0.000982938
0.0009856
0.000988197
0.000990733
0.000993209
0.000995628
0.000997989
0.0010003
0.00100255
0.00100476
0.00100691
0.00100902
0.00101109
0.0010131
0.00101508
0.00101701
0.00101891
0.00102076
0.00102258
0.00102436
0.0010261
0.00102781
0.00102948
0.00103112
0.00103273
0.00103431
0.00103586
0.00103738
0.00103887
0.00104033
0.00104177
0.00104318
0.00104456
0.00104592
0.00104725
0.00104857
0.00104985
0.00105112
0.00105236
0.00105359
0.00105479
0.00105597
0.00105714
0.00105828
0.0010594
0.00106051
0.0010616
0.00106267
0.00106372
0.00106476
0.00106578
0.00106679
0.00106778
0.00106876
0.00106972
0.00107066
0.0010716
0.00107251
0.00107342
0.00107431
0.00107519
0.00107606
0.00107691
0.00107776
0.00107859
0.00107941
0.00108022
0.00108101
0.0010818
0.00108258
0.00108334
0.0010841
0.00108484
0.00108558
0.00108631
0.00108703
0.00108774
0.00108844
0.00108913
0.00108982
0.0010905
0.00109117
0.00109183
0.00109249
0.00109314
0.00109378
0.00109442
0.00109505
0.00109566
0.00109627
0.00109687
0.00109747
0.00109805
0.00109864
0.00109921
0.00109978
0.00110033
0.0011009
0.00110143
0.00110199
0.00110252
0.00110308
0.00110359
0.00110416
0.00110467
0.00110525
0.00110575
0.00110634
0.00110685
0.00110745
0.00110797
0.00110859
0.00110908
0.00110977
0.0011102
0.00111106
0.00235558
0.00196622
0.0015017
0.00111681
0.000854987
0.000645337
0.000506401
0.000397142
0.000323118
0.000267739
0.000232116
0.000212152
0.00020328
0.000204449
0.000213181
0.000228267
0.000247965
0.000271291
0.000296721
0.000323736
0.000351271
0.000379067
0.000406587
0.000433719
0.000460235
0.000485943
0.000510825
0.000534938
0.000558139
0.000580628
0.000602068
0.000622761
0.000642662
0.000661782
0.000680213
0.000697938
0.000714766
0.000731137
0.000746794
0.000761915
0.000776377
0.000790407
0.000803864
0.000816776
0.000829274
0.000841306
0.000852925
0.000864113
0.000874924
0.000885374
0.000895435
0.00090517
0.000914571
0.000923666
0.000932475
0.00094099
0.000949231
0.000957222
0.000964954
0.000972448
0.000979713
0.000986761
0.000993597
0.00100023
0.00100667
0.00101294
0.00101902
0.00102493
0.00103067
0.00103626
0.0010417
0.00104699
0.00105214
0.00105715
0.00106203
0.00106679
0.00107142
0.00107594
0.00108034
0.00108465
0.00108884
0.00109293
0.00109692
0.00110082
0.00110462
0.00110834
0.00111198
0.00111553
0.001119
0.00112239
0.00112571
0.00112895
0.00113212
0.00113523
0.00113826
0.00114124
0.00114415
0.001147
0.00114979
0.00115253
0.00115521
0.00115784
0.00116041
0.00116293
0.00116541
0.00116784
0.00117022
0.00117255
0.00117485
0.0011771
0.0011793
0.00118147
0.0011836
0.00118569
0.00118774
0.00118976
0.00119174
0.00119368
0.0011956
0.00119748
0.00119932
0.00120114
0.00120293
0.00120469
0.00120642
0.00120812
0.00120979
0.00121144
0.00121306
0.00121465
0.00121622
0.00121776
0.00121929
0.00122078
0.00122226
0.00122371
0.00122515
0.00122656
0.00122795
0.00122931
0.00123066
0.00123199
0.00123331
0.0012346
0.00123587
0.00123713
0.00123837
0.00123959
0.0012408
0.00124199
0.00124316
0.00124432
0.00124546
0.00124659
0.0012477
0.0012488
0.00124988
0.00125096
0.00125201
0.00125306
0.00125409
0.00125511
0.00125612
0.00125712
0.0012581
0.00125908
0.00126004
0.001261
0.00126194
0.00126287
0.00126379
0.00126471
0.00126561
0.0012665
0.00126737
0.00126824
0.00126909
0.00126994
0.00127077
0.0012716
0.0012724
0.00127322
0.001274
0.0012748
0.00127557
0.00127638
0.00127713
0.00127793
0.00127866
0.00127948
0.00128021
0.00128104
0.00128177
0.00128261
0.00128333
0.00128421
0.00128488
0.00128586
0.00128643
0.00128767
0.00237522
0.00222128
0.00187447
0.00152491
0.00125198
0.00100886
0.000828912
0.00067572
0.000559744
0.000463261
0.000390921
0.000332994
0.000291207
0.000264166
0.000247938
0.000241762
0.000243876
0.000253114
0.000267926
0.000287319
0.000309908
0.000334887
0.00036134
0.000388698
0.000416455
0.000444239
0.00047171
0.000498838
0.00052532
0.000551291
0.000576443
0.000600872
0.000624543
0.000647468
0.000669635
0.00069115
0.000711761
0.000731773
0.000751033
0.000769708
0.000787629
0.000805135
0.000821855
0.000837994
0.000853698
0.000868838
0.000883501
0.000897638
0.000911363
0.00092463
0.000937422
0.00094984
0.000961866
0.00097351
0.00098481
0.00099575
0.00100637
0.00101667
0.00102665
0.00103635
0.00104576
0.00105491
0.0010638
0.00107244
0.00108083
0.00108901
0.00109696
0.00110469
0.00111222
0.00111955
0.00112668
0.00113364
0.00114041
0.00114701
0.00115345
0.00115973
0.00116586
0.00117183
0.00117766
0.00118336
0.00118892
0.00119435
0.00119965
0.00120483
0.00120989
0.00121485
0.00121969
0.00122442
0.00122905
0.00123358
0.00123801
0.00124235
0.0012466
0.00125076
0.00125483
0.00125882
0.00126273
0.00126657
0.00127032
0.001274
0.00127761
0.00128115
0.00128462
0.00128803
0.00129137
0.00129465
0.00129787
0.00130103
0.00130413
0.00130717
0.00131016
0.0013131
0.00131599
0.00131882
0.00132161
0.00132435
0.00132704
0.00132969
0.00133229
0.00133485
0.00133737
0.00133984
0.00134228
0.00134468
0.00134704
0.00134936
0.00135164
0.00135389
0.0013561
0.00135828
0.00136043
0.00136254
0.00136463
0.00136668
0.0013687
0.00137069
0.00137265
0.00137458
0.00137649
0.00137837
0.00138022
0.00138205
0.00138385
0.00138562
0.00138737
0.0013891
0.0013908
0.00139248
0.00139414
0.00139578
0.00139739
0.00139898
0.00140056
0.00140211
0.00140364
0.00140515
0.00140664
0.00140812
0.00140958
0.00141102
0.00141244
0.00141384
0.00141523
0.00141661
0.00141797
0.00141931
0.00142064
0.00142195
0.00142325
0.00142453
0.0014258
0.00142706
0.0014283
0.00142952
0.00143073
0.00143192
0.0014331
0.00143427
0.00143541
0.00143655
0.00143767
0.00143878
0.00143986
0.00144096
0.00144203
0.00144312
0.00144416
0.00144524
0.00144626
0.00144735
0.00144836
0.00144947
0.00145045
0.0014516
0.00145255
0.00145375
0.00145463
0.00145594
0.00145669
0.00145838
0.00237155
0.00234591
0.00213208
0.00185906
0.00161664
0.00137782
0.00118504
0.00101022
0.000866913
0.000740574
0.000637324
0.000546087
0.000474083
0.000412464
0.000363863
0.000328725
0.000304165
0.000289283
0.000283243
0.000284858
0.000292892
0.000306386
0.000324188
0.000345371
0.000369024
0.000394478
0.00042098
0.000448231
0.000475687
0.000503259
0.000530581
0.000557556
0.000584039
0.00061001
0.000635335
0.000660137
0.000684159
0.000707579
0.000730262
0.000752362
0.000773703
0.000794526
0.000814667
0.000834128
0.000853067
0.000871404
0.000889229
0.000906448
0.000923269
0.000939484
0.000955166
0.000970468
0.00098531
0.0009997
0.00101369
0.00102726
0.00104047
0.0010533
0.00106573
0.00107784
0.00108962
0.00110108
0.00111222
0.00112309
0.00113364
0.00114393
0.00115396
0.00116372
0.00117323
0.00118251
0.00119155
0.00120037
0.00120897
0.00121737
0.00122556
0.00123356
0.00124137
0.00124899
0.00125644
0.00126372
0.00127083
0.00127779
0.00128459
0.00129123
0.00129774
0.0013041
0.00131032
0.00131642
0.00132238
0.00132822
0.00133394
0.00133954
0.00134503
0.00135041
0.00135568
0.00136085
0.00136591
0.00137088
0.00137575
0.00138053
0.00138522
0.00138981
0.00139433
0.00139876
0.00140311
0.00140738
0.00141157
0.00141569
0.00141973
0.0014237
0.00142761
0.00143145
0.00143522
0.00143892
0.00144257
0.00144615
0.00144968
0.00145314
0.00145655
0.00145991
0.0014632
0.00146645
0.00146965
0.00147279
0.00147589
0.00147894
0.00148194
0.00148489
0.0014878
0.00149067
0.0014935
0.00149628
0.00149902
0.00150172
0.00150438
0.00150701
0.00150959
0.00151214
0.00151466
0.00151713
0.00151958
0.00152199
0.00152437
0.00152671
0.00152902
0.00153131
0.00153356
0.00153578
0.00153797
0.00154014
0.00154227
0.00154438
0.00154646
0.00154851
0.00155054
0.00155254
0.00155452
0.00155648
0.00155841
0.00156031
0.0015622
0.00156406
0.0015659
0.00156772
0.00156952
0.0015713
0.00157306
0.0015748
0.00157652
0.00157822
0.0015799
0.00158157
0.00158321
0.00158484
0.00158644
0.00158802
0.00158958
0.00159113
0.00159265
0.00159416
0.00159564
0.00159711
0.00159856
0.0016
0.00160142
0.00160284
0.00160424
0.00160565
0.001607
0.00160842
0.00160975
0.0016112
0.00161249
0.00161398
0.00161521
0.00161677
0.00161792
0.00161961
0.00162059
0.00162278
0.00236341
0.00238919
0.00228629
0.00209802
0.00190988
0.0017037
0.00152203
0.00134863
0.00119774
0.0010583
0.000937335
0.000826404
0.000731035
0.000644771
0.000570299
0.000506569
0.000451942
0.000408278
0.000375246
0.000350939
0.000335455
0.000327986
0.000327503
0.000333231
0.000344233
0.000359668
0.000378521
0.000400178
0.000423806
0.000448971
0.000475098
0.00050186
0.00052888
0.000556018
0.000582977
0.000609781
0.000636152
0.000662134
0.000687559
0.000712515
0.000736845
0.000760645
0.000783882
0.000806464
0.000828505
0.00084994
0.000870857
0.000891153
0.000910978
0.000930245
0.000948937
0.000967154
0.000984893
0.00100214
0.00101894
0.00103526
0.00105122
0.00106671
0.00108172
0.00109643
0.00111073
0.00112468
0.00113826
0.00115151
0.0011644
0.00117701
0.0011893
0.00120126
0.00121294
0.00122435
0.00123548
0.00124635
0.00125697
0.00126734
0.00127747
0.00128737
0.00129705
0.0013065
0.00131575
0.00132479
0.00133364
0.00134229
0.00135076
0.00135905
0.00136717
0.00137511
0.00138289
0.00139051
0.00139798
0.00140529
0.00141246
0.00141948
0.00142637
0.00143313
0.00143975
0.00144625
0.00145262
0.00145887
0.00146501
0.00147103
0.00147694
0.00148274
0.00148844
0.00149404
0.00149953
0.00150493
0.00151024
0.00151545
0.00152057
0.00152561
0.00153056
0.00153543
0.00154021
0.00154492
0.00154955
0.0015541
0.00155858
0.00156299
0.00156733
0.00157159
0.00157579
0.00157993
0.001584
0.00158801
0.00159196
0.00159585
0.00159968
0.00160345
0.00160717
0.00161083
0.00161444
0.001618
0.0016215
0.00162496
0.00162836
0.00163172
0.00163503
0.0016383
0.00164152
0.00164469
0.00164783
0.00165092
0.00165397
0.00165697
0.00165994
0.00166287
0.00166576
0.00166861
0.00167143
0.00167421
0.00167695
0.00167966
0.00168233
0.00168497
0.00168758
0.00169016
0.0016927
0.00169521
0.0016977
0.00170015
0.00170257
0.00170497
0.00170734
0.00170968
0.001712
0.00171429
0.00171655
0.00171879
0.001721
0.0017232
0.00172536
0.00172751
0.00172962
0.00173172
0.00173377
0.00173581
0.00173782
0.00173982
0.00174178
0.00174372
0.00174563
0.00174752
0.00174939
0.00175124
0.00175308
0.00175489
0.0017567
0.00175849
0.00176025
0.00176204
0.00176375
0.00176558
0.00176724
0.00176912
0.00177069
0.00177268
0.00177412
0.00177626
0.0017775
0.00178028
0.00235738
0.00239313
0.00236247
0.00224917
0.00211996
0.0019619
0.00180781
0.00165277
0.00151019
0.00137357
0.00124955
0.0011325
0.00102597
0.000927304
0.000837284
0.000755563
0.000679762
0.000614687
0.000555718
0.000504237
0.000463015
0.000429848
0.0004044
0.00038685
0.000376678
0.000373099
0.000375431
0.000383038
0.000395053
0.000410829
0.000429606
0.000450823
0.000473825
0.000498246
0.000523571
0.000549611
0.000575983
0.000602563
0.00062909
0.000655514
0.000681675
0.000707506
0.000733003
0.00075802
0.00078261
0.000806685
0.000830307
0.00085338
0.000875976
0.000898069
0.000919621
0.000940666
0.000961231
0.000981286
0.00100088
0.00101998
0.00103865
0.00105688
0.00107461
0.00109195
0.00110887
0.0011254
0.00114151
0.00115727
0.00117263
0.00118769
0.00120236
0.00121664
0.00123066
0.00124435
0.00125772
0.0012708
0.00128358
0.00129609
0.0013083
0.00132027
0.00133199
0.00134342
0.00135463
0.0013656
0.00137634
0.00138686
0.00139716
0.00140725
0.00141713
0.00142682
0.00143631
0.00144563
0.00145475
0.00146369
0.00147246
0.00148107
0.00148951
0.0014978
0.00150592
0.0015139
0.00152173
0.00152942
0.00153697
0.00154438
0.00155167
0.00155882
0.00156584
0.00157275
0.00157953
0.0015862
0.00159275
0.0015992
0.00160554
0.00161177
0.0016179
0.00162392
0.00162985
0.00163569
0.00164143
0.00164708
0.00165264
0.00165812
0.0016635
0.00166881
0.00167403
0.00167918
0.00168424
0.00168923
0.00169415
0.00169899
0.00170377
0.00170847
0.0017131
0.00171767
0.00172218
0.00172661
0.00173099
0.00173531
0.00173956
0.00174376
0.0017479
0.00175198
0.00175601
0.00175998
0.0017639
0.00176777
0.00177159
0.00177536
0.00177907
0.00178274
0.00178637
0.00178994
0.00179347
0.00179696
0.0018004
0.0018038
0.00180715
0.00181047
0.00181374
0.00181698
0.00182017
0.00182333
0.00182645
0.00182953
0.00183258
0.00183559
0.00183856
0.00184151
0.00184442
0.0018473
0.00185015
0.00185296
0.00185575
0.0018585
0.00186123
0.00186392
0.00186659
0.00186922
0.00187181
0.00187438
0.00187691
0.00187942
0.00188189
0.00188434
0.00188675
0.00188913
0.00189148
0.00189381
0.00189611
0.00189841
0.00190066
0.00190292
0.00190511
0.00190737
0.00190951
0.0019118
0.00191386
0.00191622
0.00191817
0.00192064
0.00192243
0.00192509
0.00192662
0.00193008
0.00235431
0.00238296
0.00238924
0.00233294
0.00225398
0.00214679
0.00202858
0.001902
0.00177879
0.00165621
0.00154026
0.00142817
0.00132239
0.00122211
0.00112681
0.00103784
0.000953412
0.000875136
0.000802318
0.000733605
0.000673456
0.000617471
0.000568196
0.000527032
0.000492832
0.000465184
0.000444707
0.000430911
0.000423264
0.000421355
0.000424602
0.000432458
0.000444206
0.000459331
0.000477176
0.000497307
0.000519186
0.000542467
0.000566748
0.000591767
0.000617286
0.00064306
0.000669006
0.000694908
0.000720727
0.00074632
0.000771684
0.00079671
0.000821395
0.000845706
0.000869603
0.000893061
0.000916097
0.000938674
0.00096082
0.000982503
0.00100374
0.00102457
0.00104491
0.00106484
0.00108433
0.00110342
0.00112208
0.00114037
0.00115823
0.00117574
0.00119287
0.0012096
0.001226
0.00124205
0.00125776
0.00127314
0.0012882
0.00130295
0.00131737
0.00133155
0.0013454
0.00135893
0.00137224
0.00138527
0.00139804
0.00141056
0.00142283
0.00143487
0.00144666
0.00145823
0.00146958
0.00148073
0.00149164
0.00150236
0.00151288
0.00152321
0.00153335
0.00154331
0.00155308
0.00156268
0.00157211
0.00158138
0.00159048
0.00159942
0.00160822
0.00161685
0.00162534
0.00163369
0.0016419
0.00164998
0.00165792
0.00166573
0.00167341
0.00168097
0.00168841
0.00169573
0.00170293
0.00171002
0.001717
0.00172388
0.00173064
0.00173731
0.00174387
0.00175033
0.0017567
0.00176298
0.00176916
0.00177525
0.00178125
0.00178716
0.001793
0.00179874
0.00180441
0.00181
0.00181551
0.00182094
0.0018263
0.00183158
0.00183679
0.00184193
0.00184701
0.00185201
0.00185695
0.00186183
0.00186664
0.00187139
0.00187607
0.0018807
0.00188527
0.00188977
0.00189423
0.00189862
0.00190296
0.00190725
0.00191149