/*--------------------------------*- C++ -*----------------------------------*\
  =========                 |
  \\      /  F ield         | OpenFOAM: The Open Source CFD Toolbox
   \\    /   O peration     | Website:  https://openfoam.org
    \\  /    A nd           | Version:  12
     \\/     M anipulation  |
\*---------------------------------------------------------------------------*/
FoamFile
{
    format      ascii;
    class       volScalarField;
    location    "600";
    object      p;
}
// * * * * * * * * * * * * * * * * * * * * * * * * * * * * * * * * * * * * * //

dimensions      [0 2 -2 0 0 0 0];

internalField   nonuniform List<scalar> 
20000
(
0.26144
0.140172
0.113865
0.111988
0.109632
0.107615
0.106256
0.105085
0.104036
0.103009
0.102016
0.101073
0.100165
0.099302
0.098477
0.0976797
0.0969017
0.0961272
0.0953667
0.0946287
0.0938966
0.0931717
0.0924587
0.0917541
0.0910598
0.0903678
0.0896851
0.089005
0.0883332
0.0876623
0.0869999
0.0863391
0.0856838
0.0850315
0.0843827
0.0837376
0.0830978
0.0824597
0.0818252
0.0811937
0.0805644
0.0799399
0.0793165
0.0786977
0.0780796
0.0774657
0.076853
0.0762446
0.0756369
0.0750334
0.0744311
0.0738319
0.0732346
0.07264
0.0720474
0.0714574
0.0708694
0.0702832
0.0696997
0.069118
0.0685386
0.067961
0.0673855
0.066812
0.06624
0.0656705
0.0651024
0.0645368
0.0639725
0.0634103
0.0628496
0.0622908
0.0617336
0.0611783
0.0606246
0.0600727
0.0595224
0.0589737
0.0584266
0.0578809
0.0573371
0.0567946
0.0562539
0.0557144
0.0551767
0.0546402
0.0541053
0.0535718
0.0530396
0.0525089
0.0519795
0.0514516
0.0509249
0.0503996
0.0498756
0.0493529
0.0488314
0.0483111
0.0477922
0.0472744
0.046758
0.0462427
0.0457286
0.0452157
0.044704
0.0441934
0.0436839
0.0431757
0.0426684
0.0421624
0.0416573
0.0411535
0.0406506
0.040149
0.0396481
0.0391486
0.0386498
0.0381523
0.0376556
0.03716
0.0366653
0.0361717
0.035679
0.0351873
0.0346965
0.0342067
0.0337177
0.0332297
0.0327427
0.0322565
0.0317712
0.0312868
0.0308033
0.0303207
0.029839
0.029358
0.028878
0.0283988
0.0279205
0.0274429
0.0269662
0.0264903
0.0260152
0.0255409
0.0250675
0.0245947
0.0241229
0.0236517
0.0231814
0.0227117
0.0222429
0.0217748
0.0213075
0.0208409
0.020375
0.0199099
0.0194455
0.0189818
0.0185188
0.0180566
0.0175951
0.0171343
0.0166742
0.0162148
0.0157561
0.0152981
0.0148408
0.0143843
0.0139284
0.0134732
0.0130188
0.0125649
0.0121118
0.0116593
0.0112076
0.0107563
0.010306
0.00985595
0.00940707
0.00895814
0.00851077
0.00806285
0.00761715
0.00717017
0.00672645
0.00628024
0.00583897
0.00539327
0.00495515
0.00450966
0.00407576
0.00363013
0.00320153
0.00275573
0.00233381
0.00188796
0.001475
0.00102236
0.000633739
0.000114016
0.225025
0.138177
0.114535
0.112443
0.109897
0.107795
0.106397
0.105199
0.104131
0.103088
0.102084
0.101133
0.100217
0.0993485
0.0985184
0.097717
0.0969354
0.0961578
0.0953948
0.0946545
0.0939205
0.0931938
0.0924794
0.0917734
0.0910778
0.0903848
0.0897011
0.08902
0.0883474
0.0876758
0.0870127
0.0863513
0.0856954
0.0850426
0.0843933
0.0837478
0.0831075
0.0824691
0.0818341
0.0812023
0.0805727
0.0799479
0.0793242
0.0787051
0.0780868
0.0774726
0.0768597
0.0762511
0.0756432
0.0750395
0.074437
0.0738377
0.0732402
0.0726455
0.0720527
0.0714626
0.0708744
0.0702881
0.0697045
0.0691226
0.0685431
0.0679654
0.0673898
0.0668162
0.0662441
0.0656745
0.0651064
0.0645406
0.0639762
0.063414
0.0628531
0.0622943
0.061737
0.0611817
0.0606279
0.0600759
0.0595255
0.0589768
0.0584297
0.0578839
0.05734
0.0567975
0.0562567
0.0557172
0.0551794
0.0546429
0.0541079
0.0535743
0.0530421
0.0525114
0.051982
0.051454
0.0509273
0.0504019
0.0498779
0.0493551
0.0488336
0.0483132
0.0477943
0.0472765
0.0467601
0.0462447
0.0457306
0.0452176
0.0447059
0.0441953
0.0436858
0.0431775
0.0426702
0.0421642
0.0416591
0.0411552
0.0406523
0.0401506
0.0396498
0.0391502
0.0386514
0.0381539
0.0376571
0.0371615
0.0366668
0.0361732
0.0356804
0.0351887
0.0346979
0.0342081
0.0337191
0.0332311
0.032744
0.0322578
0.0317725
0.0312881
0.0308046
0.0303219
0.0298402
0.0293592
0.0288792
0.0284
0.0279217
0.0274441
0.0269674
0.0264914
0.0260164
0.025542
0.0250685
0.0245958
0.0241239
0.0236527
0.0231824
0.0227128
0.0222439
0.0217758
0.0213085
0.0208419
0.020376
0.0199108
0.0194464
0.0189827
0.0185198
0.0180575
0.017596
0.0171352
0.016675
0.0162156
0.0157569
0.015299
0.0148417
0.0143851
0.0139292
0.013474
0.0130195
0.0125657
0.0121126
0.0116601
0.0112084
0.0107571
0.0103068
0.0098567
0.00940781
0.00895887
0.0085115
0.00806358
0.00761787
0.00717088
0.00672717
0.00628094
0.00583968
0.00539397
0.00495586
0.00451035
0.00407646
0.00363084
0.00320222
0.00275646
0.00233451
0.0018887
0.00147577
0.00102313
0.000634624
0.000114761
0.209531
0.140265
0.116114
0.113154
0.110332
0.108114
0.106655
0.105412
0.104309
0.103239
0.102215
0.101248
0.100317
0.0994406
0.0986013
0.0977918
0.097003
0.0962196
0.0954517
0.0947069
0.0939688
0.0932386
0.0925211
0.0918124
0.0911142
0.0904189
0.0897332
0.0890503
0.0883759
0.0877028
0.0870383
0.0863756
0.0857185
0.0850646
0.0844142
0.0837678
0.0831267
0.0824874
0.0818517
0.0812191
0.0805889
0.0799635
0.0793392
0.0787196
0.0781007
0.0774861
0.0768727
0.0762637
0.0756554
0.0750513
0.0744484
0.0738487
0.0732509
0.0726559
0.0720628
0.0714724
0.0708839
0.0702973
0.0697135
0.0691314
0.0685517
0.0679737
0.0673979
0.0668241
0.0662518
0.065682
0.0651137
0.0645478
0.0639832
0.0634208
0.0628598
0.0623008
0.0617434
0.0611879
0.060634
0.0600819
0.0595314
0.0589825
0.0584353
0.0578894
0.0573454
0.0568028
0.0562619
0.0557223
0.0551843
0.0546478
0.0541127
0.053579
0.0530467
0.0525159
0.0519864
0.0514584
0.0509316
0.0504062
0.049882
0.0493591
0.0488376
0.0483172
0.0477982
0.0472803
0.0467638
0.0462483
0.0457342
0.0452212
0.0447094
0.0441987
0.0436892
0.0431808
0.0426735
0.0421674
0.0416622
0.0411584
0.0406554
0.0401537
0.0396528
0.0391531
0.0386543
0.0381567
0.03766
0.0371643
0.0366696
0.0361759
0.0356831
0.0351913
0.0347005
0.0342106
0.0337216
0.0332336
0.0327465
0.0322602
0.0317749
0.0312904
0.0308069
0.0303242
0.0298425
0.0293615
0.0288814
0.0284021
0.0279238
0.0274462
0.0269695
0.0264935
0.0260184
0.025544
0.0250705
0.0245978
0.0241258
0.0236546
0.0231843
0.0227146
0.0222458
0.0217776
0.0213103
0.0208436
0.0203777
0.0199126
0.0194481
0.0189844
0.0185214
0.0180592
0.0175976
0.0171368
0.0166766
0.0162172
0.0157585
0.0153005
0.0148432
0.0143866
0.0139307
0.0134755
0.013021
0.0125671
0.012114
0.0116615
0.0112097
0.0107585
0.0103081
0.00985805
0.00940915
0.0089602
0.00851282
0.00806488
0.00761918
0.00717217
0.00672847
0.00628221
0.00584097
0.00539523
0.00495714
0.00451162
0.00407773
0.00363212
0.0032035
0.00275776
0.00233581
0.00189002
0.00147719
0.00102444
0.000636343
0.000115178
0.204017
0.141369
0.118032
0.113867
0.110793
0.108465
0.106942
0.105654
0.104516
0.10342
0.102378
0.101394
0.10045
0.0995633
0.0987131
0.0978934
0.0970957
0.0963051
0.0955309
0.0947804
0.0940367
0.093302
0.0925804
0.091868
0.0911663
0.0904678
0.0897793
0.0890938
0.0884171
0.0877418
0.0870753
0.0864107
0.0857519
0.0850964
0.0844446
0.0837969
0.0831545
0.082514
0.0818772
0.0812436
0.0806124
0.0799861
0.0793609
0.0787406
0.0781209
0.0775056
0.0768915
0.0762818
0.075673
0.0750683
0.0744649
0.0738647
0.0732664
0.0726709
0.0720774
0.0714865
0.0708976
0.0703107
0.0697265
0.069144
0.068564
0.0679857
0.0674096
0.0668355
0.0662629
0.0656928
0.0651243
0.0645581
0.0639933
0.0634306
0.0628694
0.0623102
0.0617526
0.0611969
0.0606428
0.0600905
0.0595398
0.0589907
0.0584433
0.0578973
0.0573531
0.0568103
0.0562693
0.0557296
0.0551915
0.0546548
0.0541195
0.0535858
0.0530533
0.0525224
0.0519928
0.0514646
0.0509377
0.0504122
0.0498879
0.049365
0.0488433
0.0483228
0.0478037
0.0472857
0.0467691
0.0462536
0.0457394
0.0452263
0.0447144
0.0442036
0.043694
0.0431856
0.0426782
0.042172
0.0416668
0.0411629
0.0406598
0.040158
0.0396571
0.0391573
0.0386585
0.0381608
0.037664
0.0371683
0.0366735
0.0361797
0.0356869
0.0351951
0.0347042
0.0342142
0.0337252
0.0332371
0.0327499
0.0322637
0.0317783
0.0312938
0.0308102
0.0303275
0.0298457
0.0293646
0.0288846
0.0284052
0.0279268
0.0274492
0.0269724
0.0264964
0.0260213
0.0255469
0.0250733
0.0246005
0.0241286
0.0236574
0.0231869
0.0227173
0.0222484
0.0217802
0.0213128
0.0208461
0.0203802
0.019915
0.0194506
0.0189868
0.0185238
0.0180615
0.0175999
0.017139
0.0166789
0.0162194
0.0157607
0.0153027
0.0148453
0.0143887
0.0139328
0.0134776
0.0130231
0.0125692
0.0121161
0.0116635
0.0112117
0.0107604
0.0103101
0.00985998
0.00941107
0.00896209
0.00851471
0.00806675
0.00762105
0.00717401
0.00673032
0.00628403
0.0058428
0.00539703
0.00495897
0.00451341
0.00407955
0.00363392
0.00320531
0.00275957
0.00233767
0.00189184
0.00147917
0.00102628
0.000638592
0.000115102
0.198034
0.140846
0.119813
0.114764
0.11123
0.108771
0.107182
0.105858
0.104701
0.103591
0.10254
0.101545
0.100589
0.0996939
0.0988336
0.0980045
0.0971986
0.0964011
0.0956209
0.0948644
0.0941149
0.0933757
0.0926496
0.0919336
0.0912279
0.0905257
0.0898341
0.0891457
0.0884663
0.0877885
0.0871197
0.0864529
0.0857923
0.0851349
0.0844812
0.0838321
0.0831882
0.0825462
0.0819082
0.0812733
0.080641
0.0800136
0.0793874
0.0787661
0.0781455
0.0775293
0.0769145
0.076304
0.0756944
0.0750891
0.0744849
0.0738841
0.0732852
0.0726892
0.0720952
0.0715038
0.0709144
0.070327
0.0697423
0.0691594
0.068579
0.0680003
0.0674238
0.0668493
0.0662764
0.065706
0.0651371
0.0645707
0.0640055
0.0634426
0.0628811
0.0623216
0.0617637
0.0612078
0.0606535
0.0601009
0.05955
0.0590007
0.0584531
0.0579069
0.0573625
0.0568195
0.0562783
0.0557384
0.0552002
0.0546633
0.0541279
0.0535939
0.0530613
0.0525303
0.0520005
0.0514722
0.0509452
0.0504195
0.0498951
0.049372
0.0488503
0.0483296
0.0478104
0.0472923
0.0467756
0.04626
0.0457457
0.0452324
0.0447205
0.0442096
0.0436999
0.0431914
0.0426838
0.0421776
0.0416723
0.0411683
0.0406651
0.0401633
0.0396622
0.0391624
0.0386635
0.0381657
0.0376689
0.0371731
0.0366782
0.0361844
0.0356915
0.0351996
0.0347086
0.0342187
0.0337295
0.0332414
0.0327542
0.0322678
0.0317824
0.0312978
0.0308142
0.0303314
0.0298496
0.0293685
0.0288883
0.028409
0.0279305
0.0274528
0.026976
0.0265
0.0260248
0.0255503
0.0250767
0.0246039
0.0241319
0.0236606
0.0231902
0.0227205
0.0222515
0.0217833
0.0213159
0.0208492
0.0203832
0.019918
0.0194535
0.0189897
0.0185267
0.0180643
0.0176027
0.0171418
0.0166816
0.0162222
0.0157634
0.0153053
0.014848
0.0143913
0.0139354
0.0134801
0.0130256
0.0125717
0.0121185
0.0116659
0.0112141
0.0107628
0.0103124
0.00986231
0.00941339
0.00896439
0.008517
0.008069
0.00762331
0.00717623
0.00673255
0.00628623
0.00584502
0.00539921
0.00496116
0.00451558
0.00408172
0.00363609
0.00320747
0.00276173
0.00233987
0.00189398
0.00148149
0.00102848
0.000640948
0.00011449
0.191557
0.14021
0.120976
0.115808
0.111724
0.109065
0.107391
0.106019
0.104844
0.103728
0.102676
0.101678
0.100719
0.0998182
0.0989504
0.0981149
0.0973032
0.0964998
0.0957146
0.0949531
0.0941984
0.0934549
0.0927249
0.0920053
0.0912952
0.0905895
0.089895
0.0892036
0.0885215
0.0878409
0.0871697
0.0865007
0.0858381
0.0851786
0.084523
0.0838723
0.0832267
0.0825831
0.0819437
0.0813074
0.0806738
0.0800452
0.0794179
0.0787956
0.0781738
0.0775566
0.0769409
0.0763296
0.0757191
0.0751131
0.0745082
0.0739066
0.0733071
0.0727104
0.0721157
0.0715238
0.0709338
0.0703458
0.0697607
0.0691773
0.0685964
0.0680172
0.0674403
0.0668654
0.0662921
0.0657213
0.0651521
0.0645852
0.0640197
0.0634565
0.0628947
0.0623348
0.0617767
0.0612205
0.0606659
0.0601131
0.0595619
0.0590124
0.0584645
0.057918
0.0573734
0.0568302
0.0562888
0.0557486
0.0552102
0.0546731
0.0541376
0.0536034
0.0530706
0.0525394
0.0520095
0.051481
0.0509538
0.050428
0.0499035
0.0493802
0.0488583
0.0483375
0.0478182
0.0473
0.0467831
0.0462674
0.0457529
0.0452396
0.0447275
0.0442165
0.0437067
0.043198
0.0426904
0.0421841
0.0416787
0.0411746
0.0406713
0.0401693
0.0396682
0.0391684
0.0386693
0.0381715
0.0376745
0.0371786
0.0366837
0.0361898
0.0356968
0.0352049
0.0347138
0.0342238
0.0337346
0.0332464
0.0327591
0.0322727
0.0317872
0.0313025
0.0308189
0.030336
0.0298541
0.0293729
0.0288927
0.0284133
0.0279348
0.027457
0.0269802
0.0265041
0.0260288
0.0255543
0.0250807
0.0246078
0.0241358
0.0236645
0.023194
0.0227242
0.0222552
0.021787
0.0213195
0.0208527
0.0203867
0.0199215
0.0194569
0.0189931
0.01853
0.0180676
0.017606
0.017145
0.0166848
0.0162253
0.0157665
0.0153084
0.014851
0.0143943
0.0139383
0.0134831
0.0130285
0.0125745
0.0121214
0.0116687
0.0112169
0.0107656
0.0103152
0.00986502
0.00941608
0.00896704
0.00851964
0.00807162
0.00762592
0.00717881
0.00673513
0.00628877
0.00584756
0.00540173
0.00496369
0.00451808
0.00408421
0.00363857
0.00320994
0.00276418
0.00234236
0.00189636
0.00148409
0.00103094
0.000643303
0.000113451
0.185566
0.140079
0.121698
0.116481
0.112268
0.109432
0.107614
0.106173
0.104964
0.10383
0.102777
0.101777
0.100821
0.099923
0.0990531
0.098216
0.0974024
0.0965949
0.0958065
0.0950416
0.0942827
0.0935355
0.0928022
0.0920796
0.0913656
0.0906567
0.0899595
0.0892654
0.0885809
0.0878975
0.0872237
0.0865527
0.0858881
0.0852264
0.084569
0.0839165
0.0832692
0.082624
0.0819832
0.0813453
0.0807104
0.0800805
0.079452
0.0788285
0.0782056
0.0775873
0.0769707
0.0763584
0.075747
0.0751402
0.0745343
0.073932
0.0733317
0.0727344
0.072139
0.0715464
0.0709557
0.0703672
0.0697815
0.0691976
0.0686161
0.0680365
0.0674591
0.0668836
0.0663099
0.0657387
0.065169
0.0646018
0.0640359
0.0634723
0.0629101
0.0623499
0.0617914
0.0612349
0.06068
0.0601269
0.0595754
0.0590256
0.0584774
0.0579307
0.0573859
0.0568424
0.0563007
0.0557604
0.0552217
0.0546844
0.0541486
0.0536143
0.0530813
0.0525499
0.0520197
0.0514911
0.0509637
0.0504377
0.049913
0.0493896
0.0488675
0.0483465
0.0478271
0.0473087
0.0467917
0.0462758
0.0457612
0.0452477
0.0447355
0.0442244
0.0437145
0.0432057
0.042698
0.0421915
0.041686
0.0411817
0.0406784
0.0401763
0.0396751
0.0391751
0.038676
0.038178
0.037681
0.037185
0.03669
0.036196
0.0357029
0.0352109
0.0347197
0.0342296
0.0337403
0.0332521
0.0327647
0.0322782
0.0317926
0.0313079
0.0308242
0.0303412
0.0298592
0.029378
0.0288978
0.0284183
0.0279397
0.0274619
0.026985
0.0265088
0.0260335
0.0255589
0.0250852
0.0246123
0.0241402
0.0236688
0.0231983
0.0227284
0.0222594
0.0217911
0.0213236
0.0208568
0.0203908
0.0199254
0.0194608
0.018997
0.0185338
0.0180714
0.0176097
0.0171487
0.0166884
0.0162289
0.0157701
0.0153119
0.0148545
0.0143978
0.0139418
0.0134864
0.0130318
0.0125778
0.0121246
0.0116719
0.0112201
0.0107687
0.0103183
0.00986812
0.00941916
0.00897008
0.00852266
0.00807461
0.0076289
0.00718175
0.00673806
0.00629167
0.00585045
0.00540459
0.00496654
0.00452092
0.00408702
0.00364138
0.00321272
0.00276693
0.00234514
0.00189897
0.00148696
0.00103363
0.000645655
0.00011206
0.180137
0.139806
0.122524
0.116928
0.112661
0.109878
0.107892
0.106345
0.105091
0.103929
0.102862
0.101852
0.100894
0.0999993
0.09913
0.098296
0.0974856
0.0966779
0.0958896
0.0951241
0.0943627
0.0936131
0.0928777
0.0921532
0.091436
0.0907245
0.0900251
0.0893288
0.0886423
0.0879562
0.0872802
0.0866074
0.0859409
0.0852772
0.0846179
0.0839637
0.0833147
0.0826679
0.0820257
0.0813862
0.0807499
0.0801189
0.079489
0.0788644
0.0782403
0.0776209
0.0770033
0.07639
0.0757777
0.07517
0.0745632
0.07396
0.073359
0.0727609
0.0721648
0.0715715
0.0709801
0.070391
0.0698047
0.0692201
0.0686381
0.0680579
0.0674799
0.066904
0.0663297
0.0657581
0.065188
0.0646203
0.064054
0.06349
0.0629274
0.0623668
0.0618079
0.0612511
0.0606958
0.0601424
0.0595905
0.0590404
0.058492
0.0579449
0.0573998
0.0568561
0.0563141
0.0557735
0.0552346
0.054697
0.054161
0.0536264
0.0530932
0.0525616
0.0520312
0.0515024
0.0509748
0.0504486
0.0499237
0.0494001
0.0488779
0.0483567
0.0478371
0.0473185
0.0468014
0.0462853
0.0457706
0.0452569
0.0447446
0.0442333
0.0437232
0.0432143
0.0427065
0.0421999
0.0416942
0.0411899
0.0406864
0.0401842
0.0396829
0.0391828
0.0386835
0.0381855
0.0376883
0.0371922
0.0366971
0.036203
0.0357098
0.0352177
0.0347264
0.0342362
0.0337469
0.0332585
0.032771
0.0322844
0.0317988
0.031314
0.0308302
0.0303471
0.0298651
0.0293838
0.0289035
0.0284239
0.0279453
0.0274673
0.0269904
0.0265141
0.0260388
0.0255641
0.0250904
0.0246174
0.0241452
0.0236738
0.0232032
0.0227333
0.0222642
0.0217958
0.0213283
0.0208614
0.0203953
0.0199299
0.0194653
0.0190014
0.0185382
0.0180757
0.0176139
0.0171529
0.0166926
0.016233
0.0157741
0.0153159
0.0148585
0.0144017
0.0139456
0.0134903
0.0130356
0.0125816
0.0121283
0.0116756
0.0112237
0.0107723
0.0103219
0.00987163
0.00942263
0.00897352
0.00852607
0.00807798
0.00763225
0.00718508
0.00674136
0.00629494
0.0058537
0.00540782
0.00496974
0.00452411
0.00409017
0.00364452
0.00321582
0.00276998
0.00234822
0.00190181
0.0014901
0.00103653
0.000648004
0.000110358
0.175045
0.139442
0.123232
0.117474
0.112959
0.110185
0.108209
0.106556
0.105233
0.104036
0.102954
0.101927
0.10096
0.100061
0.0991857
0.0983522
0.0975453
0.0967396
0.0959551
0.0951929
0.0944321
0.0936826
0.0929471
0.0922223
0.0915032
0.0907898
0.090089
0.0893912
0.0887031
0.0880149
0.0873371
0.0866628
0.0859948
0.0853294
0.0846683
0.0840125
0.083362
0.0827138
0.0820704
0.0814292
0.0807918
0.0801596
0.0795283
0.0789026
0.0782774
0.0776569
0.0770383
0.076424
0.0758107
0.0752021
0.0745944
0.0739903
0.0733885
0.0727897
0.0721928
0.0715988
0.0710067
0.0704168
0.0698299
0.0692447
0.0686621
0.0680813
0.0675028
0.0669263
0.0663515
0.0657794
0.0652088
0.0646407
0.0640739
0.0635094
0.0629464
0.0623854
0.0618261
0.0612689
0.0607132
0.0601595
0.0596073
0.0590569
0.0585081
0.0579607
0.0574153
0.0568712
0.056329
0.0557881
0.0552489
0.0547111
0.0541748
0.05364
0.0531065
0.0525746
0.052044
0.051515
0.0509871
0.0504608
0.0499356
0.0494119
0.0488894
0.0483681
0.0478482
0.0473295
0.0468122
0.0462959
0.045781
0.0452672
0.0447547
0.0442433
0.043733
0.043224
0.0427159
0.0422092
0.0417034
0.0411989
0.0406953
0.040193
0.0396915
0.0391913
0.0386919
0.0381938
0.0376964
0.0372003
0.036705
0.0362108
0.0357175
0.0352253
0.0347339
0.0342436
0.0337542
0.0332657
0.0327781
0.0322914
0.0318057
0.0313208
0.0308369
0.0303538
0.0298716
0.0293903
0.0289099
0.0284302
0.0279515
0.0274735
0.0269964
0.0265201
0.0260447
0.02557
0.0250961
0.0246231
0.0241508
0.0236793
0.0232086
0.0227387
0.0222696
0.0218011
0.0213335
0.0208666
0.0204004
0.019935
0.0194703
0.0190063
0.018543
0.0180805
0.0176187
0.0171576
0.0166972
0.0162376
0.0157786
0.0153204
0.0148629
0.0144061
0.01395
0.0134946
0.0130398
0.0125858
0.0121325
0.0116797
0.0112278
0.0107763
0.0103258
0.00987556
0.00942653
0.00897738
0.00852989
0.00808176
0.007636
0.00718879
0.00674505
0.0062986
0.00585732
0.00541141
0.0049733
0.00452766
0.00409365
0.00364799
0.00321924
0.00277334
0.0023516
0.00190488
0.0014935
0.00103963
0.000650351
0.000108375
0.170214
0.139019
0.123795
0.11797
0.113351
0.110417
0.108428
0.106778
0.105411
0.10416
0.103054
0.102007
0.101031
0.100125
0.0992391
0.098401
0.0975922
0.0967837
0.0960011
0.0952425
0.0944838
0.0937367
0.093004
0.0922816
0.0915624
0.0908489
0.090148
0.0894497
0.088761
0.0880713
0.0873924
0.086717
0.086048
0.0853811
0.0847186
0.0840617
0.0834099
0.0827605
0.082116
0.0814734
0.0808349
0.0802016
0.0795691
0.0789424
0.078316
0.0776945
0.077075
0.0764598
0.0758456
0.0752361
0.0746274
0.0740225
0.0734199
0.0728204
0.0722226
0.071628
0.0710351
0.0704445
0.069857
0.0692712
0.068688
0.0681065
0.0675275
0.0669504
0.0663751
0.0658025
0.0652313
0.0646628
0.0640954
0.0635306
0.0629671
0.0624056
0.0618459
0.0612884
0.0607323
0.0601781
0.0596256
0.0590748
0.0585256
0.0579779
0.0574321
0.0568878
0.0563453
0.055804
0.0552646
0.0547264
0.0541899
0.0536548
0.053121
0.0525889
0.0520581
0.0515288
0.0510007
0.0504741
0.0499488
0.0494248
0.0489021
0.0483805
0.0478605
0.0473416
0.046824
0.0463076
0.0457925
0.0452785
0.0447659
0.0442542
0.0437438
0.0432346
0.0427264
0.0422195
0.0417136
0.0412089
0.0407052
0.0402027
0.0397011
0.0392008
0.0387012
0.0382029
0.0377055
0.0372092
0.0367138
0.0362195
0.0357261
0.0352337
0.0347423
0.0342518
0.0337623
0.0332737
0.032786
0.0322992
0.0318134
0.0313284
0.0308444
0.0303612
0.0298789
0.0293974
0.028917
0.0284372
0.0279584
0.0274803
0.0270032
0.0265268
0.0260513
0.0255765
0.0251026
0.0246294
0.0241571
0.0236855
0.0232148
0.0227447
0.0222755
0.021807
0.0213393
0.0208723
0.0204061
0.0199406
0.0194758
0.0190118
0.0185484
0.0180859
0.017624
0.0171629
0.0167024
0.0162427
0.0157837
0.0153254
0.0148678
0.014411
0.0139548
0.0134993
0.0130446
0.0125905
0.0121371
0.0116843
0.0112323
0.0107808
0.0103303
0.00987994
0.00943086
0.00898166
0.00853413
0.00808596
0.00764016
0.00719292
0.00674913
0.00630264
0.00586132
0.00541539
0.00497722
0.00453156
0.00409749
0.00365181
0.00322298
0.00277701
0.00235527
0.0019082
0.00149714
0.00104291
0.00065271
0.000106147
0.165641
0.138506
0.124236
0.118399
0.113723
0.110724
0.1086
0.106958
0.105558
0.104298
0.10317
0.102096
0.101106
0.100194
0.0992965
0.0984533
0.0976404
0.0968255
0.096041
0.0952817
0.0945216
0.0937751
0.0930448
0.0923259
0.0916081
0.0908965
0.0901975
0.0895005
0.0888126
0.0881225
0.0874435
0.0867678
0.0860985
0.0854305
0.084767
0.0841095
0.0834569
0.0828064
0.0821612
0.0815173
0.0808779
0.0802439
0.0796103
0.0789829
0.0783554
0.077733
0.0771126
0.0764966
0.0758816
0.0752713
0.0746616
0.074056
0.0734527
0.0728524
0.072254
0.0716587
0.0710651
0.0704737
0.0698855
0.0692992
0.0687154
0.0681333
0.0675538
0.066976
0.0664001
0.0658271
0.0652554
0.0646863
0.0641185
0.0635533
0.0629893
0.0624273
0.0618672
0.0613093
0.0607527
0.0601982
0.0596453
0.0590941
0.0585446
0.0579965
0.0574504
0.0569057
0.0563629
0.0558213
0.0552816
0.0547431
0.0542063
0.0536709
0.0531369
0.0526045
0.0520734
0.0515438
0.0510155
0.0504887
0.0499631
0.0494388
0.0489159
0.0483941
0.0478739
0.0473547
0.046837
0.0463204
0.0458051
0.0452909
0.0447781
0.0442662
0.0437557
0.0432463
0.0427379
0.0422308
0.0417247
0.0412199
0.040716
0.0402134
0.0397116
0.0392111
0.0387114
0.038213
0.0377154
0.037219
0.0367235
0.036229
0.0357355
0.035243
0.0347514
0.0342609
0.0337712
0.0332825
0.0327947
0.0323078
0.0318218
0.0313367
0.0308526
0.0303693
0.0298869
0.0294054
0.0289248
0.0284449
0.027966
0.0274878
0.0270106
0.0265341
0.0260585
0.0255836
0.0251096
0.0246364
0.024164
0.0236923
0.0232215
0.0227514
0.0222821
0.0218135
0.0213457
0.0208787
0.0204124
0.0199468
0.019482
0.0190178
0.0185544
0.0180918
0.0176299
0.0171687
0.0167082
0.0162484
0.0157893
0.015331
0.0148733
0.0144164
0.0139602
0.0135047
0.0130498
0.0125956
0.0121422
0.0116893
0.0112373
0.0107858
0.0103352
0.00988478
0.00943565
0.0089864
0.00853881
0.0080906
0.00764474
0.00719747
0.00675362
0.00630711
0.00586572
0.00541976
0.00498152
0.00453585
0.00410168
0.00365599
0.00322706
0.002781
0.00235924
0.0019118
0.00150099
0.00104634
0.00065511
0.000103728
0.161331
0.137878
0.12456
0.118762
0.114063
0.111019
0.108825
0.107133
0.105662
0.104423
0.103262
0.102193
0.101192
0.10027
0.0993567
0.0985078
0.0976926
0.0968702
0.096083
0.0953219
0.0945579
0.0938086
0.0930778
0.0923598
0.0916413
0.0909307
0.0902339
0.0895393
0.0888536
0.0881644
0.0874868
0.0868122
0.0861438
0.0854755
0.0848116
0.0841542
0.0835013
0.0828502
0.0822047
0.0815597
0.0809198
0.0802853
0.079651
0.0790229
0.0783945
0.0777713
0.0771504
0.0765337
0.075918
0.075307
0.0746964
0.0740902
0.0734862
0.0728853
0.0722862
0.0716904
0.071096
0.070504
0.0699152
0.0693283
0.068744
0.0681613
0.0675813
0.0670029
0.0664265
0.065853
0.0652808
0.0647112
0.0641429
0.0635772
0.0630127
0.0624503
0.0618898
0.0613315
0.0607745
0.0602196
0.0596663
0.0591148
0.0585648
0.0580163
0.0574699
0.0569249
0.0563818
0.0558399
0.0552998
0.054761
0.054224
0.0536882
0.0531539
0.0526212
0.0520899
0.05156
0.0510314
0.0505044
0.0499785
0.049454
0.0489309
0.0484089
0.0478884
0.047369
0.0468511
0.0463342
0.0458188
0.0453043
0.0447913
0.0442793
0.0437685
0.0432589
0.0427503
0.0422431
0.0417368
0.0412319
0.0407278
0.040225
0.0397231
0.0392224
0.0387226
0.038224
0.0377263
0.0372297
0.036734
0.0362394
0.0357457
0.0352531
0.0347614
0.0342707
0.0337809
0.0332921
0.0328041
0.0323172
0.0318311
0.0313459
0.0308616
0.0303782
0.0298957
0.0294141
0.0289334
0.0284534
0.0279744
0.0274961
0.0270188
0.0265422
0.0260665
0.0255915
0.0251174
0.0246441
0.0241716
0.0236998
0.0232289
0.0227587
0.0222894
0.0218207
0.0213528
0.0208857
0.0204193
0.0199536
0.0194887
0.0190245
0.0185611
0.0180983
0.0176363
0.0171751
0.0167145
0.0162547
0.0157955
0.0153371
0.0148794
0.0144224
0.0139661
0.0135105
0.0130556
0.0126014
0.0121479
0.0116949
0.0112429
0.0107912
0.0103406
0.00989012
0.00944092
0.00899162
0.00854396
0.0080957
0.00764977
0.00720246
0.00675854
0.006312
0.00587053
0.00542455
0.00498621
0.00454053
0.00410624
0.00366053
0.00323149
0.00278532
0.00236351
0.00191569
0.00150505
0.00104991
0.000657567
0.000101182
0.157279
0.137132
0.124767
0.119058
0.114372
0.111292
0.109047
0.107302
0.1058
0.104537
0.103334
0.102284
0.101281
0.100329
0.0994268
0.098568
0.0977474
0.0969165
0.0961263
0.0953651
0.0945965
0.0938435
0.0931116
0.0923933
0.0916715
0.0909594
0.0902625
0.0895686
0.088884
0.0881951
0.0875192
0.0868464
0.0861801
0.0855126
0.0848492
0.0841931
0.0835408
0.0828899
0.0822447
0.0815991
0.0809591
0.0803244
0.0796897
0.0790614
0.0784322
0.0778085
0.0771873
0.0765701
0.0759538
0.0753425
0.0747311
0.0741243
0.0735198
0.0729184
0.0723187
0.0717224
0.0711274
0.0705347
0.0699455
0.0693581
0.0687732
0.06819
0.0676096
0.0670306
0.0664537
0.0658798
0.0653071
0.0647371
0.0641683
0.0636022
0.0630373
0.0624744
0.0619135
0.0613547
0.0607974
0.0602422
0.0596884
0.0591366
0.0585862
0.0580373
0.0574906
0.0569453
0.0564018
0.0558595
0.0553192
0.0547801
0.0542427
0.0537067
0.053172
0.0526391
0.0521074
0.0515773
0.0510485
0.0505212
0.049995
0.0494703
0.0489469
0.0484246
0.0479039
0.0473843
0.0468662
0.0463491
0.0458334
0.0453188
0.0448055
0.0442933
0.0437824
0.0432725
0.0427638
0.0422564
0.0417499
0.0412448
0.0407405
0.0402375
0.0397354
0.0392346
0.0387346
0.0382359
0.037738
0.0372412
0.0367454
0.0362507
0.0357569
0.0352641
0.0347722
0.0342814
0.0337915
0.0333025
0.0328145
0.0323273
0.0318411
0.0313558
0.0308714
0.0303879
0.0299053
0.0294235
0.0289427
0.0284626
0.0279835
0.0275051
0.0270277
0.026551
0.0260752
0.0256001
0.0251259
0.0246525
0.0241799
0.023708
0.023237
0.0227667
0.0222973
0.0218285
0.0213606
0.0208933
0.0204269
0.0199611
0.0194961
0.0190318
0.0185683
0.0181055
0.0176434
0.0171821
0.0167214
0.0162615
0.0158023
0.0153438
0.014886
0.014429
0.0139726
0.0135169
0.013062
0.0126076
0.0121541
0.0117011
0.0112489
0.0107972
0.0103465
0.00989596
0.00944668
0.00899732
0.00854959
0.00810128
0.00765527
0.00720792
0.00676392
0.00631733
0.00587577
0.00542977
0.0049913
0.00454562
0.00411118
0.00366546
0.00323626
0.00278999
0.0023681
0.00191988
0.00150932
0.00105362
0.000660087
9.85746e-05
0.153483
0.136276
0.124858
0.119286
0.114648
0.111545
0.109255
0.107468
0.105939
0.104647
0.103434
0.102368
0.101356
0.100379
0.099498
0.0986309
0.097788
0.0969694
0.0961748
0.0954105
0.0946368
0.0938791
0.0931466
0.092429
0.0917029
0.0909887
0.0902911
0.0895966
0.0889111
0.0882204
0.0875446
0.0868726
0.0862075
0.0855402
0.0848776
0.0842233
0.0835724
0.0829225
0.0822787
0.081633
0.0809938
0.0803596
0.079725
0.079097
0.0784674
0.0778435
0.0772222
0.0766047
0.0759881
0.0753767
0.0747646
0.0741574
0.0735527
0.072951
0.0723507
0.0717542
0.0711585
0.0705654
0.0699758
0.069388
0.0688027
0.068219
0.0676383
0.0670587
0.0664813
0.0659071
0.0653339
0.0647636
0.0641944
0.0636279
0.0630625
0.0624992
0.0619379
0.0613788
0.0608211
0.0602656
0.0597114
0.0591592
0.0586085
0.0580592
0.0575122
0.0569665
0.0564227
0.0558802
0.0553395
0.0548001
0.0542625
0.0537261
0.0531911
0.0526579
0.052126
0.0515956
0.0510665
0.0505389
0.0500125
0.0494876
0.0489639
0.0484414
0.0479204
0.0474006
0.0468823
0.0463649
0.0458491
0.0453342
0.0448207
0.0443083
0.0437972
0.0432871
0.0427782
0.0422706
0.0417639
0.0412586
0.0407541
0.040251
0.0397487
0.0392478
0.0387476
0.0382487
0.0377506
0.0372537
0.0367577
0.0362628
0.0357689
0.035276
0.0347839
0.034293
0.0338029
0.0333138
0.0328256
0.0323383
0.031852
0.0313665
0.030882
0.0303983
0.0299157
0.0294337
0.0289528
0.0284726
0.0279934
0.0275149
0.0270373
0.0265605
0.0260846
0.0256094
0.0251351
0.0246616
0.0241889
0.0237169
0.0232458
0.0227754
0.0223059
0.021837
0.021369
0.0209016
0.0204351
0.0199693
0.0195042
0.0190398
0.0185762
0.0181133
0.0176511
0.0171897
0.016729
0.016269
0.0158097
0.0153511
0.0148932
0.0144361
0.0139797
0.0135239
0.0130689
0.0126145
0.0121608
0.0117077
0.0112555
0.0108037
0.0103529
0.00990234
0.00945297
0.00900355
0.00855573
0.00810735
0.00766126
0.00721385
0.00676975
0.00632313
0.00588146
0.00543543
0.00499683
0.00455113
0.00411652
0.00367078
0.0032414
0.00279502
0.00237299
0.00192439
0.00151381
0.00105748
0.000662676
9.59785e-05
0.149936
0.135325
0.124838
0.119444
0.114887
0.111776
0.109451
0.107629
0.106074
0.104758
0.103535
0.102451
0.10143
0.10045
0.099558
0.0986852
0.0978246
0.0970238
0.0962258
0.0954436
0.0946766
0.0939222
0.0931851
0.0924664
0.0917359
0.0910188
0.0903202
0.0896257
0.0889396
0.0882459
0.0875695
0.0868971
0.0862319
0.0855633
0.0849001
0.0842467
0.0835963
0.0829473
0.0823048
0.0816592
0.0810214
0.0803883
0.0797546
0.0791275
0.0784979
0.0778744
0.0772536
0.0766364
0.0760198
0.0754085
0.074796
0.0741887
0.073584
0.0729821
0.0723815
0.0717849
0.0711887
0.0705953
0.0700055
0.0694173
0.0688318
0.0682477
0.0676668
0.0670867
0.0665089
0.0659344
0.0653609
0.0647902
0.0642207
0.063654
0.0630881
0.0625243
0.0619628
0.0614034
0.0608453
0.0602895
0.0597349
0.0591825
0.0586314
0.0580818
0.0575344
0.0569885
0.0564444
0.0559015
0.0553606
0.0548209
0.054283
0.0537463
0.053211
0.0526776
0.0521454
0.0516148
0.0510854
0.0505576
0.0500309
0.0495057
0.0489818
0.048459
0.0479378
0.0474178
0.0468992
0.0463816
0.0458656
0.0453505
0.0448368
0.0443241
0.0438128
0.0433026
0.0427934
0.0422857
0.0417788
0.0412733
0.0407686
0.0402653
0.0397628
0.0392617
0.0387613
0.0382623
0.037764
0.0372669
0.0367708
0.0362758
0.0357817
0.0352886
0.0347964
0.0343054
0.0338151
0.0333259
0.0328375
0.0323501
0.0318636
0.031378
0.0308934
0.0304096
0.0299268
0.0294447
0.0289637
0.0284833
0.028004
0.0275254
0.0270477
0.0265708
0.0260948
0.0256195
0.0251451
0.0246714
0.0241986
0.0237266
0.0232553
0.0227848