/*--------------------------------*- C++ -*----------------------------------*\
  =========                 |
  \\      /  F ield         | OpenFOAM: The Open Source CFD Toolbox
   \\    /   O peration     | Website:  https://openfoam.org
    \\  /    A nd           | Version:  12
     \\/     M anipulation  |
\*---------------------------------------------------------------------------*/
FoamFile
{
    format      ascii;
    class       volVectorField;
    location    "600";
    object      U;
}
// * * * * * * * * * * * * * * * * * * * * * * * * * * * * * * * * * * * * * //

dimensions      [0 1 -1 0 0 0 0];

internalField   nonuniform List<vector> 
20000
(
(0.696546 -0.0953481 0)
(0.391224 -0.00674948 0)
(0.255426 0.000249602 0)
(0.201808 0.000182691 0)
(0.179414 0.000130637 0)
(0.165881 7.49192e-05 0)
(0.156856 1.51504e-05 0)
(0.150822 -6.81831e-06 0)
(0.146227 -1.40801e-05 0)
(0.142708 -8.90383e-06 0)
(0.139521 -8.25345e-06 0)
(0.137098 -7.77597e-06 0)
(0.13476 -2.78893e-06 0)
(0.13285 -6.29998e-06 0)
(0.131164 -6.21588e-06 0)
(0.12971 -4.73594e-06 0)
(0.128341 -2.93733e-06 0)
(0.127117 -1.27829e-06 0)
(0.125947 -6.6847e-08 0)
(0.124893 1.67052e-07 0)
(0.123894 1.41996e-06 0)
(0.122961 2.23888e-06 0)
(0.122075 2.84422e-06 0)
(0.121236 3.1286e-06 0)
(0.120457 3.32961e-06 0)
(0.119705 4.10943e-06 0)
(0.11899 4.18339e-06 0)
(0.118306 4.75119e-06 0)
(0.117648 4.80249e-06 0)
(0.117018 5.11997e-06 0)
(0.116415 5.07299e-06 0)
(0.115832 5.43795e-06 0)
(0.115269 5.40697e-06 0)
(0.11473 5.48922e-06 0)
(0.114206 5.63104e-06 0)
(0.113699 5.64154e-06 0)
(0.11321 5.51689e-06 0)
(0.112738 5.67634e-06 0)
(0.112276 5.63397e-06 0)
(0.111834 5.59382e-06 0)
(0.111399 5.66702e-06 0)
(0.11098 5.50708e-06 0)
(0.110571 5.59847e-06 0)
(0.110175 5.40663e-06 0)
(0.109789 5.47664e-06 0)
(0.109414 5.3796e-06 0)
(0.109046 5.41916e-06 0)
(0.10869 5.25634e-06 0)
(0.108341 5.31518e-06 0)
(0.108002 5.14309e-06 0)
(0.10767 5.14789e-06 0)
(0.107347 5.06006e-06 0)
(0.107031 5.04366e-06 0)
(0.106722 4.9326e-06 0)
(0.106421 4.88757e-06 0)
(0.106126 4.80301e-06 0)
(0.105838 4.74577e-06 0)
(0.105556 4.70836e-06 0)
(0.10528 4.60637e-06 0)
(0.105011 4.56771e-06 0)
(0.104746 4.48215e-06 0)
(0.104488 4.4362e-06 0)
(0.104234 4.36655e-06 0)
(0.103987 4.2942e-06 0)
(0.103743 4.2712e-06 0)
(0.103505 4.17009e-06 0)
(0.103271 4.13912e-06 0)
(0.103042 4.04201e-06 0)
(0.102818 4.0163e-06 0)
(0.102598 3.93227e-06 0)
(0.102381 3.89293e-06 0)
(0.10217 3.82943e-06 0)
(0.101961 3.78853e-06 0)
(0.101757 3.71684e-06 0)
(0.101556 3.67311e-06 0)
(0.101359 3.61186e-06 0)
(0.101166 3.56171e-06 0)
(0.100975 3.50847e-06 0)
(0.100789 3.44976e-06 0)
(0.100606 3.4189e-06 0)
(0.100425 3.35214e-06 0)
(0.100248 3.31756e-06 0)
(0.100074 3.25544e-06 0)
(0.0999028 3.22175e-06 0)
(0.0997344 3.1633e-06 0)
(0.099569 3.12426e-06 0)
(0.0994061 3.07716e-06 0)
(0.0992462 3.02959e-06 0)
(0.0990887 2.99639e-06 0)
(0.0989338 2.94397e-06 0)
(0.0987813 2.91077e-06 0)
(0.0986312 2.86136e-06 0)
(0.0984836 2.82779e-06 0)
(0.0983382 2.78334e-06 0)
(0.0981952 2.74477e-06 0)
(0.0980543 2.70834e-06 0)
(0.0979157 2.66473e-06 0)
(0.0977791 2.63916e-06 0)
(0.0976446 2.59175e-06 0)
(0.0975121 2.56569e-06 0)
(0.0973816 2.52006e-06 0)
(0.097253 2.49502e-06 0)
(0.0971264 2.45103e-06 0)
(0.0970017 2.42577e-06 0)
(0.0968787 2.38624e-06 0)
(0.0967578 2.35707e-06 0)
(0.0966382 2.32588e-06 0)
(0.0965208 2.28944e-06 0)
(0.0964047 2.26847e-06 0)
(0.0962905 2.22683e-06 0)
(0.0961777 2.20821e-06 0)
(0.0960668 2.16656e-06 0)
(0.0959571 2.14996e-06 0)
(0.0958492 2.10851e-06 0)
(0.0957427 2.09313e-06 0)
(0.0956378 2.053e-06 0)
(0.0955342 2.03649e-06 0)
(0.0954321 2.00082e-06 0)
(0.0953314 1.98153e-06 0)
(0.0952321 1.95046e-06 0)
(0.095134 1.93058e-06 0)
(0.0950374 1.89972e-06 0)
(0.0949419 1.88056e-06 0)
(0.0948478 1.84978e-06 0)
(0.094755 1.83187e-06 0)
(0.0946633 1.80272e-06 0)
(0.094573 1.78404e-06 0)
(0.0944837 1.75787e-06 0)
(0.0943957 1.73669e-06 0)
(0.0943088 1.71523e-06 0)
(0.0942231 1.6907e-06 0)
(0.0941383 1.67403e-06 0)
(0.0940548 1.64726e-06 0)
(0.0939723 1.63205e-06 0)
(0.0938909 1.60513e-06 0)
(0.0938105 1.59135e-06 0)
(0.0937312 1.56432e-06 0)
(0.0936527 1.55159e-06 0)
(0.0935754 1.52518e-06 0)
(0.093499 1.51261e-06 0)
(0.0934236 1.48769e-06 0)
(0.0933491 1.47431e-06 0)
(0.0932756 1.4518e-06 0)
(0.0932029 1.43722e-06 0)
(0.0931312 1.41678e-06 0)
(0.0930603 1.40215e-06 0)
(0.0929904 1.38182e-06 0)
(0.0929212 1.36822e-06 0)
(0.092853 1.34767e-06 0)
(0.0927855 1.33484e-06 0)
(0.0927189 1.31504e-06 0)
(0.092653 1.30223e-06 0)
(0.092588 1.28285e-06 0)
(0.0925238 1.26999e-06 0)
(0.0924603 1.25299e-06 0)
(0.0923976 1.23813e-06 0)
(0.0923356 1.22263e-06 0)
(0.0922744 1.20692e-06 0)
(0.0922139 1.19441e-06 0)
(0.0921541 1.17776e-06 0)
(0.092095 1.16422e-06 0)
(0.0920367 1.14712e-06 0)
(0.091979 1.13559e-06 0)
(0.0919221 1.12044e-06 0)
(0.0918657 1.10824e-06 0)
(0.09181 1.09295e-06 0)
(0.091755 1.08211e-06 0)
(0.0917006 1.06849e-06 0)
(0.0916469 1.05481e-06 0)
(0.0915936 1.04379e-06 0)
(0.0915411 1.03141e-06 0)
(0.0914889 1.02534e-06 0)
(0.0914374 1.01218e-06 0)
(0.091386 1.01215e-06 0)
(0.0913355 9.92869e-07 0)
(0.0912849 9.95817e-07 0)
(0.0912356 9.6927e-07 0)
(0.0911856 9.86846e-07 0)
(0.0911374 9.46608e-07 0)
(0.0910877 9.83092e-07 0)
(0.0910408 9.2038e-07 0)
(0.0909909 9.86941e-07 0)
(0.0909456 8.81485e-07 0)
(0.0908954 9.94965e-07 0)
(0.0908522 8.2956e-07 0)
(0.0908009 1.02249e-06 0)
(0.0907605 7.59358e-07 0)
(0.090707 1.07454e-06 0)
(0.0906705 6.5785e-07 0)
(0.0906136 1.16226e-06 0)
(0.0905819 5.18706e-07 0)
(0.0905204 1.32197e-06 0)
(0.0904927 3.24446e-07 0)
(0.0904279 1.53233e-06 0)
(0.0904015 1.10211e-07 0)
(0.0903339 1.7917e-06 0)
(0.0903117 -2.6369e-07 0)
(0.0902277 2.30303e-06 0)
(0.0902491 -2.1135e-06 0)
(0.0900539 1.04889e-05 0)
(0.971307 0.0731487 0)
(0.83259 0.0463969 0)
(0.671409 0.0180092 0)
(0.562234 0.00770707 0)
(0.499339 0.00400499 0)
(0.458871 0.00249392 0)
(0.430554 0.00167347 0)
(0.409967 0.00121776 0)
(0.393927 0.000938406 0)
(0.381188 0.000775629 0)
(0.370328 0.000648754 0)
(0.361504 0.000548377 0)
(0.353683 0.000483795 0)
(0.347064 0.00041144 0)
(0.341262 0.00035878 0)
(0.336203 0.000321667 0)
(0.331581 0.000292714 0)
(0.327467 0.000268831 0)
(0.323657 0.000248885 0)
(0.320218 0.000228254 0)
(0.317022 0.000213912 0)
(0.314076 0.00020054 0)
(0.311327 0.000188996 0)
(0.308754 0.000177149 0)
(0.306373 0.000166417 0)
(0.304119 0.000159318 0)
(0.301995 0.000151023 0)
(0.299985 0.000144886 0)
(0.298076 0.000137858 0)
(0.296269 0.000132293 0)
(0.294548 0.000126398 0)
(0.292904 0.000122149 0)
(0.29133 0.000117063 0)
(0.289832 0.000112649 0)
(0.288391 0.000109004 0)
(0.287008 0.000105203 0)
(0.28568 0.000101078 0)
(0.284407 9.82601e-05 0)
(0.283171 9.49794e-05 0)
(0.281991 9.18888e-05 0)
(0.280842 8.94661e-05 0)
(0.279738 8.63973e-05 0)
(0.278666 8.42491e-05 0)
(0.277633 8.13632e-05 0)
(0.276631 7.93751e-05 0)
(0.275662 7.71727e-05 0)
(0.274716 7.5389e-05 0)
(0.273803 7.30851e-05 0)
(0.272913 7.15599e-05 0)
(0.27205 6.9397e-05 0)
(0.27121 6.781e-05 0)
(0.270395 6.61133e-05 0)
(0.269598 6.46934e-05 0)
(0.268824 6.29955e-05 0)
(0.26807 6.15761e-05 0)
(0.267334 6.00822e-05 0)
(0.266618 5.87239e-05 0)
(0.265918 5.75248e-05 0)
(0.265235 5.61368e-05 0)
(0.264569 5.49906e-05 0)
(0.263918 5.37305e-05 0)
(0.263283 5.26525e-05 0)
(0.26266 5.15182e-05 0)
(0.262054 5.04139e-05 0)
(0.261459 4.9522e-05 0)
(0.260878 4.84094e-05 0)
(0.260308 4.75255e-05 0)
(0.259752 4.6463e-05 0)
(0.259207 4.56474e-05 0)
(0.258673 4.46879e-05 0)
(0.25815 4.38739e-05 0)
(0.257638 4.30328e-05 0)
(0.257136 4.22869e-05 0)
(0.256643 4.14475e-05 0)
(0.256161 4.07137e-05 0)
(0.255687 3.99454e-05 0)
(0.255223 3.92292e-05 0)
(0.254767 3.85144e-05 0)
(0.25432 3.77989e-05 0)
(0.253882 3.71992e-05 0)
(0.253451 3.65061e-05 0)
(0.253028 3.59169e-05 0)
(0.252613 3.52537e-05 0)
(0.252205 3.46958e-05 0)
(0.251804 3.40688e-05 0)
(0.251411 3.35151e-05 0)
(0.251024 3.29504e-05 0)
(0.250644 3.23905e-05 0)
(0.250271 3.18976e-05 0)
(0.249904 3.13513e-05 0)
(0.249542 3.08733e-05 0)
(0.249187 3.03517e-05 0)
(0.248838 2.98917e-05 0)
(0.248494 2.94032e-05 0)
(0.248157 2.8943e-05 0)
(0.247824 2.84959e-05 0)
(0.247497 2.80356e-05 0)
(0.247175 2.76427e-05 0)
(0.246858 2.71929e-05 0)
(0.246546 2.68108e-05 0)
(0.246239 2.63747e-05 0)
(0.245937 2.6009e-05 0)
(0.245639 2.55883e-05 0)
(0.245346 2.52363e-05 0)
(0.245057 2.48412e-05 0)
(0.244773 2.4489e-05 0)
(0.244493 2.41332e-05 0)
(0.244217 2.37678e-05 0)
(0.243945 2.34581e-05 0)
(0.243677 2.30909e-05 0)
(0.243413 2.27936e-05 0)
(0.243153 2.24355e-05 0)
(0.242897 2.21544e-05 0)
(0.242644 2.18053e-05 0)
(0.242395 2.15383e-05 0)
(0.24215 2.12015e-05 0)
(0.241907 2.09377e-05 0)
(0.241669 2.0625e-05 0)
(0.241433 2.03604e-05 0)
(0.241201 2.00709e-05 0)
(0.240972 1.9816e-05 0)
(0.240747 1.95316e-05 0)
(0.240524 1.92856e-05 0)
(0.240305 1.90067e-05 0)
(0.240088 1.8772e-05 0)
(0.239874 1.85044e-05 0)
(0.239664 1.82745e-05 0)
(0.239456 1.80222e-05 0)
(0.23925 1.77903e-05 0)
(0.239048 1.75594e-05 0)
(0.238848 1.73229e-05 0)
(0.238651 1.71135e-05 0)
(0.238456 1.68774e-05 0)
(0.238264 1.6676e-05 0)
(0.238075 1.64441e-05 0)
(0.237888 1.62524e-05 0)
(0.237703 1.60248e-05 0)
(0.23752 1.58416e-05 0)
(0.237341 1.56204e-05 0)
(0.237163 1.54425e-05 0)
(0.236987 1.52308e-05 0)
(0.236814 1.50543e-05 0)
(0.236643 1.48551e-05 0)
(0.236474 1.46792e-05 0)
(0.236308 1.44917e-05 0)
(0.236143 1.43212e-05 0)
(0.23598 1.41365e-05 0)
(0.235819 1.39734e-05 0)
(0.235661 1.37914e-05 0)
(0.235504 1.36346e-05 0)
(0.235349 1.34589e-05 0)
(0.235196 1.3306e-05 0)
(0.235045 1.31342e-05 0)
(0.234896 1.29857e-05 0)
(0.234748 1.28257e-05 0)
(0.234603 1.26728e-05 0)
(0.234459 1.25203e-05 0)
(0.234317 1.23694e-05 0)
(0.234176 1.22302e-05 0)
(0.234037 1.20794e-05 0)
(0.2339 1.19389e-05 0)
(0.233764 1.17884e-05 0)
(0.233631 1.16569e-05 0)
(0.233498 1.15169e-05 0)
(0.233367 1.13885e-05 0)
(0.233238 1.12491e-05 0)
(0.23311 1.11285e-05 0)
(0.232984 1.09981e-05 0)
(0.232859 1.08737e-05 0)
(0.232735 1.07538e-05 0)
(0.232613 1.06418e-05 0)
(0.232492 1.05425e-05 0)
(0.232372 1.04416e-05 0)
(0.232253 1.03631e-05 0)
(0.232136 1.0253e-05 0)
(0.232018 1.01762e-05 0)
(0.231904 1.00596e-05 0)
(0.231788 1.00235e-05 0)
(0.231676 9.88894e-06 0)
(0.23156 9.89651e-06 0)
(0.231452 9.72476e-06 0)
(0.231336 9.79791e-06 0)
(0.231231 9.53563e-06 0)
(0.231115 9.70702e-06 0)
(0.231014 9.3247e-06 0)
(0.230895 9.67918e-06 0)
(0.230801 9.08965e-06 0)
(0.230677 9.73275e-06 0)
(0.230592 8.77971e-06 0)
(0.230461 9.91076e-06 0)
(0.230385 8.36515e-06 0)
(0.230245 1.04369e-05 0)
(0.230177 7.80615e-06 0)
(0.23003 1.11733e-05 0)
(0.229965 7.34463e-06 0)
(0.229812 1.19293e-05 0)
(0.229752 7.10627e-06 0)
(0.229571 1.30329e-05 0)
(0.22957 4.2415e-06 0)
(0.229237 3.8692e-05 0)
(1.00819 0.065317 0)
(0.99085 0.0518141 0)
(0.927085 0.0302 0)
(0.830994 0.0178214 0)
(0.755579 0.0112154 0)
(0.697511 0.00756844 0)
(0.652384 0.00536131 0)
(0.617026 0.00401783 0)
(0.588713 0.00314275 0)
(0.565657 0.00257493 0)
(0.546407 0.00214632 0)
(0.530281 0.00181173 0)
(0.516442 0.00157302 0)
(0.504533 0.00135329 0)
(0.494113 0.00118369 0)
(0.484965 0.00105591 0)
(0.476735 0.00095205 0)
(0.469414 0.000864778 0)
(0.462738 0.000792152 0)
(0.456707 0.000723998 0)
(0.451165 0.000670891 0)
(0.446087 0.000622776 0)
(0.44139 0.000581692 0)
(0.437029 0.000541981 0)
(0.433 0.000506651 0)
(0.429221 0.00047959 0)
(0.425684 0.000452095 0)
(0.422359 0.000429568 0)
(0.419225 0.000406582 0)
(0.416275 0.000387153 0)
(0.413476 0.000368458 0)
(0.410824 0.000352943 0)
(0.4083 0.000336781 0)
(0.405906 0.000322364 0)
(0.403617 0.000309869 0)
(0.401434 0.000297668 0)
(0.399343 0.000285319 0)
(0.397347 0.000275558 0)
(0.395422 0.00026533 0)
(0.393588 0.000255741 0)
(0.391813 0.000247684 0)
(0.390111 0.000238766 0)
(0.388468 0.000231572 0)
(0.386887 0.000223416 0)
(0.38536 0.000216881 0)
(0.383886 0.000210341 0)
(0.382457 0.00020456 0)
(0.381078 0.00019811 0)
(0.37974 0.000193057 0)
(0.378445 0.000187105 0)
(0.377189 0.000182175 0)
(0.375972 0.000177272 0)
(0.374788 0.000172913 0)
(0.373638 0.000168153 0)
(0.372522 0.000163967 0)
(0.371435 0.000159744 0)
(0.370379 0.000155801 0)
(0.36935 0.000152235 0)
(0.368348 0.000148422 0)
(0.367373 0.000145071 0)
(0.366421 0.000141582 0)
(0.365494 0.000138466 0)
(0.364587 0.0001353 0)
(0.363706 0.000132237 0)
(0.362842 0.000129583 0)
(0.362001 0.000126621 0)
(0.361177 0.000124062 0)
(0.360373 0.000121253 0)
(0.359587 0.000118878 0)
(0.358818 0.00011632 0)
(0.358066 0.000114017 0)
(0.357331 0.000111723 0)
(0.356611 0.000109626 0)
(0.355905 0.000107392 0)
(0.355215 0.000105357 0)
(0.354538 0.000103294 0)
(0.353876 0.00010134 0)
(0.353226 9.94122e-05 0)
(0.352591 9.75037e-05 0)
(0.351967 9.58136e-05 0)
(0.351355 9.40053e-05 0)
(0.350755 9.23787e-05 0)
(0.350166 9.0647e-05 0)
(0.349588 8.91085e-05 0)
(0.349021 8.74726e-05 0)
(0.348465 8.59734e-05 0)
(0.347918 8.44762e-05 0)
(0.347382 8.29976e-05 0)
(0.346855 8.1653e-05 0)
(0.346338 8.02363e-05 0)
(0.345829 7.89434e-05 0)
(0.34533 7.75905e-05 0)
(0.344839 7.63536e-05 0)
(0.344356 7.50795e-05 0)
(0.343882 7.38651e-05 0)
(0.343415 7.26829e-05 0)
(0.342957 7.14907e-05 0)
(0.342506 7.04196e-05 0)
(0.342062 6.92743e-05 0)
(0.341626 6.82443e-05 0)
(0.341196 6.71356e-05 0)
(0.340774 6.61501e-05 0)
(0.340358 6.50816e-05 0)
(0.339949 6.41382e-05 0)
(0.339546 6.31285e-05 0)
(0.339149 6.22013e-05 0)
(0.338759 6.12731e-05 0)
(0.338375 6.03393e-05 0)
(0.337996 5.95035e-05 0)
(0.337623 5.85864e-05 0)
(0.337256 5.77818e-05 0)
(0.336894 5.68919e-05 0)
(0.336538 5.61272e-05 0)
(0.336187 5.5264e-05 0)
(0.335841 5.45359e-05 0)
(0.3355 5.37045e-05 0)
(0.335164 5.2992e-05 0)
(0.334833 5.22128e-05 0)
(0.334507 5.15103e-05 0)
(0.334185 5.07803e-05 0)
(0.333868 5.01086e-05 0)
(0.333556 4.93944e-05 0)
(0.333247 4.87465e-05 0)
(0.332943 4.80499e-05 0)
(0.332644 4.74301e-05 0)
(0.332348 4.67606e-05 0)
(0.332057 4.61581e-05 0)
(0.331769 4.55218e-05 0)
(0.331486 4.49244e-05 0)
(0.331206 4.43314e-05 0)
(0.33093 4.37348e-05 0)
(0.330658 4.31852e-05 0)
(0.330389 4.2599e-05 0)
(0.330124 4.20684e-05 0)
(0.329862 4.14955e-05 0)
(0.329604 4.09879e-05 0)
(0.32935 4.04286e-05 0)
(0.329098 3.99417e-05 0)
(0.32885 3.9399e-05 0)
(0.328605 3.89271e-05 0)
(0.328363 3.84063e-05 0)
(0.328125 3.79425e-05 0)
(0.327889 3.74484e-05 0)
(0.327656 3.69915e-05 0)
(0.327427 3.6523e-05 0)
(0.3272 3.60821e-05 0)
(0.326976 3.56228e-05 0)
(0.326755 3.51993e-05 0)
(0.326537 3.4749e-05 0)
(0.326321 3.43414e-05 0)
(0.326108 3.39063e-05 0)
(0.325898 3.35098e-05 0)
(0.32569 3.30854e-05 0)
(0.325485 3.27021e-05 0)
(0.325282 3.2302e-05 0)
(0.325082 3.19144e-05 0)
(0.324884 3.15308e-05 0)
(0.324688 3.11523e-05 0)
(0.324495 3.07947e-05 0)
(0.324304 3.04206e-05 0)
(0.324116 3.00641e-05 0)
(0.323929 2.96933e-05 0)
(0.323745 2.93558e-05 0)
(0.323563 2.90071e-05 0)
(0.323383 2.86802e-05 0)
(0.323206 2.83349e-05 0)
(0.32303 2.80261e-05 0)
(0.322856 2.76998e-05 0)
(0.322685 2.73917e-05 0)
(0.322515 2.70864e-05 0)
(0.322347 2.68088e-05 0)
(0.32218 2.65431e-05 0)
(0.322016 2.62988e-05 0)
(0.321852 2.60682e-05 0)
(0.321692 2.58216e-05 0)
(0.32153 2.55882e-05 0)
(0.321374 2.53513e-05 0)
(0.321214 2.51776e-05 0)
(0.321061 2.49401e-05 0)
(0.320903 2.48202e-05 0)
(0.320753 2.45606e-05 0)
(0.320595 2.45142e-05 0)
(0.320451 2.41572e-05 0)
(0.320292 2.42175e-05 0)
(0.320153 2.37421e-05 0)
(0.319991 2.40266e-05 0)
(0.319861 2.33223e-05 0)
(0.319692 2.39717e-05 0)
(0.319572 2.28058e-05 0)
(0.319395 2.41326e-05 0)
(0.319287 2.21464e-05 0)
(0.3191 2.49377e-05 0)
(0.319002 2.12796e-05 0)
(0.318804 2.62485e-05 0)
(0.31871 2.06647e-05 0)
(0.318506 2.75262e-05 0)
(0.318416 2.11043e-05 0)
(0.318181 2.91894e-05 0)
(0.318145 1.8138e-05 0)
(0.317768 6.91154e-05 0)
(1.0114 0.0502385 0)
(1.03997 0.0487477 0)
(1.02553 0.0348179 0)
(0.984218 0.025416 0)
(0.930304 0.0186098 0)
(0.877822 0.0138931 0)
(0.829969 0.010565 0)
(0.787798 0.00828078 0)
(0.75154 0.00664046 0)
(0.720519 0.00547622 0)
(0.694088 0.00458207 0)
(0.671327 0.0038823 0)
(0.651682 0.00335555 0)
(0.634543 0.00290249 0)
(0.619465 0.00254323 0)
(0.606132 0.00226112 0)
(0.594213 0.00202761 0)
(0.583574 0.00183151 0)
(0.573934 0.00166768 0)
(0.565216 0.00151963 0)
(0.557248 0.00139907 0)
(0.549966 0.00129152 0)
(0.543258 0.00119961 0)
(0.537056 0.00111352 0)
(0.531331 0.00103758 0)
(0.525984 0.000976084 0)
(0.521002 0.000916489 0)
(0.516335 0.000866058 0)
(0.511954 0.000816638 0)
(0.507843 0.000774128 0)
(0.503956 0.000734512 0)
(0.500286 0.000700033 0)
(0.496807 0.000665895 0)
(0.493515 0.000635213 0)
(0.490381 0.000608014 0)
(0.487401 0.000582317 0)
(0.484552 0.000557053 0)
(0.481842 0.000535798 0)
(0.479238 0.000514525 0)
(0.476759 0.000494658 0)
(0.474371 0.000477508 0)
(0.472085 0.000459504 0)
(0.469885 0.000444218 0)
(0.467772 0.000428029 0)
(0.465735 0.000414303 0)
(0.463775 0.000400962 0)
(0.461879 0.000388865 0)
(0.460053 0.000376132 0)
(0.458286 0.0003655 0)
(0.456578 0.000353871 0)
(0.454926 0.000343797 0)
(0.453327 0.000334013 0)
(0.451775 0.000325099 0)
(0.450271 0.000315774 0)
(0.448813 0.000307402 0)
(0.447396 0.000299104 0)
(0.446021 0.000291271 0)
(0.444684 0.000284118 0)
(0.443384 0.000276735 0)
(0.442119 0.000270079 0)
(0.440887 0.000263315 0)
(0.43969 0.000257154 0)
(0.43852 0.000251008 0)
(0.437384 0.000245069 0)
(0.436273 0.000239772 0)
(0.435191 0.000234141 0)
(0.434134 0.00022911 0)
(0.433103 0.000223798 0)
(0.432096 0.000219125 0)
(0.431113 0.000214272 0)
(0.430152 0.000209798 0)
(0.429213 0.000205404 0)
(0.428295 0.000201337 0)
(0.427396 0.000197114 0)
(0.426518 0.000193205 0)
(0.425657 0.000189294 0)
(0.424816 0.000185568 0)
(0.423992 0.000181916 0)
(0.423185 0.000178314 0)
(0.422395 0.000175051 0)
(0.421621 0.000171675 0)
(0.420861 0.000168566 0)
(0.420117 0.000165337 0)
(0.419388 0.0001624 0)
(0.418672 0.000159356 0)
(0.417971 0.000156519 0)
(0.417282 0.000153715 0)
(0.416607 0.000150951 0)
(0.415944 0.000148401 0)
(0.415293 0.000145775 0)
(0.414654 0.000143335 0)
(0.414027 0.00014083 0)
(0.413411 0.000138504 0)
(0.412805 0.000136142 0)
(0.412211 0.000133878 0)
(0.411626 0.000131676 0)
(0.411052 0.000129473 0)
(0.410487 0.00012745 0)
(0.409933 0.000125352 0)
(0.409387 0.000123419 0)
(0.40885 0.000121391 0)
(0.408323 0.000119543 0)
(0.407803 0.000117594 0)
(0.407293 0.000115829 0)
(0.40679 0.000113982 0)
(0.406296 0.000112262 0)
(0.405809 0.00011055 0)
(0.405331 0.000108842 0)
(0.40486 0.000107278 0)
(0.404396 0.000105618 0)
(0.403939 0.000104112 0)
(0.403489 0.000102507 0)
(0.403046 0.000101074 0)
(0.40261 9.95216e-05 0)
(0.40218 9.81561e-05 0)
(0.401757 9.66634e-05 0)
(0.40134 9.53336e-05 0)
(0.40093 9.39285e-05 0)
(0.400525 9.26274e-05 0)
(0.400126 9.13044e-05 0)
(0.399733 9.00639e-05 0)
(0.399346 8.8773e-05 0)
(0.398964 8.75781e-05 0)
(0.398587 8.63237e-05 0)
(0.398216 8.51797e-05 0)
(0.39785 8.39735e-05 0)
(0.39749 8.28651e-05 0)
(0.397134 8.17154e-05 0)
(0.396783 8.06249e-05 0)
(0.396437 7.95451e-05 0)
(0.396096 7.8467e-05 0)
(0.395759 7.74566e-05 0)
(0.395428 7.6405e-05 0)
(0.3951 7.54291e-05 0)
(0.394777 7.44046e-05 0)
(0.394458 7.34694e-05 0)
(0.394144 7.24719e-05 0)
(0.393833 7.15736e-05 0)
(0.393527 7.06072e-05 0)
(0.393225 6.97376e-05 0)
(0.392927 6.88092e-05 0)
(0.392632 6.79584e-05 0)
(0.392342 6.70744e-05 0)
(0.392055 6.6241e-05 0)
(0.391772 6.53996e-05 0)
(0.391493 6.4597e-05 0)
(0.391217 6.37748e-05 0)
(0.390944 6.30026e-05 0)
(0.390675 6.21991e-05 0)
(0.39041 6.14556e-05 0)
(0.390147 6.0679e-05 0)
(0.389888 5.99572e-05 0)
(0.389633 5.92014e-05 0)
(0.38938 5.8504e-05 0)
(0.38913 5.77872e-05 0)
(0.388884 5.70894e-05 0)
(0.38864 5.64011e-05 0)
(0.3884 5.5722e-05 0)
(0.388162 5.50739e-05 0)
(0.387927 5.44068e-05 0)
(0.387695 5.37657e-05 0)
(0.387466 5.31079e-05 0)
(0.38724 5.24973e-05 0)
(0.387016 5.18739e-05 0)
(0.386795 5.12845e-05 0)
(0.386576 5.06706e-05 0)
(0.38636 5.01122e-05 0)
(0.386146 4.95289e-05 0)
(0.385936 4.8981e-05 0)
(0.385726 4.84316e-05 0)
(0.38552 4.79357e-05 0)
(0.385315 4.7445e-05 0)
(0.385114 4.70091e-05 0)
(0.384913 4.65679e-05 0)
(0.384715 4.61467e-05 0)
(0.384517 4.57002e-05 0)
(0.384325 4.53147e-05 0)
(0.384129 4.49408e-05 0)
(0.383941 4.45856e-05 0)
(0.383747 4.42677e-05 0)
(0.383564 4.39239e-05 0)
(0.38337 4.36733e-05 0)
(0.383192 4.32539e-05 0)
(0.382998 4.30978e-05 0)
(0.382827 4.2597e-05 0)
(0.382629 4.26712e-05 0)
(0.382468 4.19683e-05 0)
(0.382264 4.24377e-05 0)
(0.382113 4.12421e-05 0)
(0.3819 4.25188e-05 0)
(0.381762 4.03626e-05 0)
(0.381538 4.34939e-05 0)
(0.381412 3.92801e-05 0)
(0.381176 4.53398e-05 0)
(0.381058 3.85577e-05 0)
(0.380812 4.72397e-05 0)
(0.380697 3.98775e-05 0)
(0.380421 4.9348e-05 0)
(0.380353 3.75997e-05 0)
(0.379946 0.000100198 0)
(1.00996 0.0450828 0)
(1.05306 0.048551 0)
(1.05269 0.0361583 0)
(1.04253 0.0289496 0)
(1.01961 0.0233619 0)
(0.988611 0.0190746 0)
(0.954417 0.0156895 0)
(0.918979 0.0130653 0)
(0.88452 0.010944 0)
(0.851962 0.00926973 0)
(0.822294 0.00788844 0)
(0.795468 0.0067624 0)
(0.771506 0.00586899 0)
(0.750114 0.00511042 0)
(0.73101 0.0044968 0)
(0.713882 0.00400063 0)
(0.698511 0.00358174 0)
(0.684692 0.00322942 0)
(0.672156 0.00293367 0)
(0.660771 0.00266928 0)
(0.650386 0.00244915 0)
(0.640875 0.00225472 0)
(0.632127 0.00208725 0)
(0.624045 0.00193337 0)
(0.61658 0.00179782 0)
(0.609627 0.00168444 0)
(0.60316 0.00157711 0)
(0.597114 0.00148493 0)
(0.59145 0.00139644 0)
(0.586146 0.00131978 0)
(0.581141 0.00124926 0)
(0.576426 0.00118643 0)
(0.571968 0.00112597 0)
(0.567754 0.00107145 0)
(0.563753 0.00102245 0)
(0.559958 0.000976996 0)
(0.556336 0.000933111 0)
(0.552895 0.000894886 0)
(0.5496 0.000857571 0)
(0.546465 0.000822847 0)
(0.543453 0.000792402 0)
(0.540574 0.000761329 0)
(0.53781 0.000734297 0)
(0.535158 0.000706743 0)
(0.532607 0.00068262 0)
(0.530155 0.000659447 0)
(0.52779 0.000638246 0)
(0.525513 0.00061663 0)
(0.523315 0.00059795 0)
(0.521194 0.000578349 0)
(0.519145 0.00056098 0)
(0.517163 0.000544276 0)
(0.515244 0.000528862 0)
(0.513387 0.000513168 0)
(0.511588 0.000498898 0)
(0.509842 0.000484904 0)
(0.508151 0.000471616 0)
(0.506508 0.000459412 0)
(0.504912 0.000447082 0)
(0.503362 0.000435809 0)
(0.501854 0.000424514 0)
(0.500389 0.000414106 0)
(0.49896 0.000403845 0)
(0.497573 0.00039393 0)
(0.496219 0.000384944 0)
(0.494901 0.00037566 0)
(0.493615 0.000367211 0)
(0.492362 0.000358492 0)
(0.491139 0.000350648 0)
(0.489946 0.000342667 0)
(0.488781 0.000335217 0)
(0.487644 0.000327954 0)
(0.486533 0.000321184 0)
(0.485446 0.000314267 0)
(0.484385 0.000307804 0)
(0.483347 0.000301393 0)
(0.482332 0.000295263 0)
(0.481338 0.000289284 0)
(0.480366 0.0002834 0)
(0.479415 0.000277998 0)
(0.478484 0.000272516 0)
(0.477571 0.000267402 0)
(0.476677 0.000262171 0)
(0.475801 0.000257346 0)
(0.474943 0.000252422 0)
(0.474102 0.000247791 0)
(0.473277 0.000243239 0)
(0.472468 0.00023876 0)
(0.471674 0.000234591 0)
(0.470896 0.000230356 0)
(0.470132 0.000226382 0)
(0.469382 0.000222351 0)
(0.468646 0.00021857 0)
(0.467923 0.000214766 0)
(0.467214 0.000211109 0)
(0.466517 0.000207555 0)
(0.465832 0.000204015 0)
(0.46516 0.000200725 0)
(0.464499 0.000197371 0)
(0.463849 0.000194241 0)
(0.463211 0.000191006 0)
(0.462583 0.000188016 0)
(0.461966 0.000184912 0)
(0.461359 0.00018206 0)
(0.460762 0.000179119 0)
(0.460175 0.000176354 0)
(0.459597 0.000173613 0)
(0.45903 0.000170891 0)
(0.45847 0.000168365 0)
(0.457921 0.000165737 0)
(0.457379 0.00016331 0)
(0.456846 0.000160774 0)
(0.456321 0.000158462 0)
(0.455805 0.000156017 0)
(0.455296 0.000153813 0)
(0.454795 0.000151464 0)
(0.454302 0.000149325 0)
(0.453816 0.000147109 0)
(0.453338 0.000145026 0)
(0.452866 0.000142933 0)
(0.452402 0.000140949 0)
(0.451944 0.000138912 0)
(0.451493 0.000137004 0)
(0.451048 0.00013503 0)
(0.45061 0.000133203 0)
(0.450179 0.000131305 0)
(0.449753 0.000129538 0)
(0.449333 0.000127727 0)
(0.44892 0.000125997 0)
(0.448512 0.000124288 0)
(0.44811 0.000122589 0)
(0.447713 0.00012098 0)
(0.447322 0.00011933 0)
(0.446936 0.000117777 0)
(0.446556 0.000116173 0)
(0.44618 0.000114684 0)
(0.44581 0.000113126 0)
(0.445444 0.000111694 0)
(0.445084 0.000110186 0)
(0.444728 0.000108802 0)
(0.444378 0.000107353 0)
(0.444031 0.000106002 0)
(0.44369 0.000104619 0)
(0.443352 0.000103301 0)
(0.44302 0.000101981 0)
(0.442691 0.000100713 0)
(0.442367 9.94269e-05 0)
(0.442046 9.8206e-05 0)
(0.44173 9.69522e-05 0)
(0.441418 9.57766e-05 0)
(0.44111 9.45643e-05 0)
(0.440806 9.34248e-05 0)
(0.440505 9.22474e-05 0)
(0.440209 9.11462e-05 0)
(0.439916 9.00253e-05 0)
(0.439626 8.89322e-05 0)
(0.43934 8.78552e-05 0)
(0.439058 8.67923e-05 0)
(0.438779 8.57721e-05 0)
(0.438504 8.47329e-05 0)
(0.438231 8.37294e-05 0)
(0.437963 8.27083e-05 0)
(0.437697 8.17491e-05 0)
(0.437434 8.07757e-05 0)
(0.437175 7.98515e-05 0)
(0.436918 7.88976e-05 0)
(0.436665 7.80201e-05 0)
(0.436415 7.71109e-05 0)
(0.436167 7.62591e-05 0)
(0.435922 7.53994e-05 0)
(0.43568 7.4624e-05 0)
(0.43544 7.38429e-05 0)
(0.435204 7.31577e-05 0)
(0.434968 7.24417e-05 0)
(0.434737 7.17983e-05 0)
(0.434505 7.10793e-05 0)
(0.434279 7.05054e-05 0)
(0.434051 6.98679e-05 0)
(0.43383 6.93655e-05 0)
(0.433603 6.87831e-05 0)
(0.433388 6.83389e-05 0)
(0.433163 6.78111e-05 0)
(0.432954 6.73336e-05 0)
(0.432727 6.68786e-05 0)
(0.432527 6.63782e-05 0)
(0.432297 6.61417e-05 0)
(0.432106 6.54933e-05 0)
(0.431871 6.56611e-05 0)
(0.431691 6.45282e-05 0)
(0.431447 6.56039e-05 0)
(0.43128 6.34223e-05 0)
(0.431025 6.66645e-05 0)
(0.430871 6.21635e-05 0)
(0.430603 6.89346e-05 0)
(0.43046 6.13958e-05 0)
(0.430177 7.16091e-05 0)
(0.43004 6.3624e-05 0)
(0.429729 7.41693e-05 0)
(0.429635 6.26483e-05 0)
(0.429199 0.000133429 0)
(1.00868 0.0410963 0)
(1.05097 0.0471199 0)
(1.05922 0.0351975 0)
(1.05737 0.0295421 0)
(1.05143 0.0253023 0)
(1.03898 0.0217787 0)
(1.02198 0.0190053 0)
(1.00102 0.0167635 0)
(0.977516 0.0147741 0)
(0.952108 0.0130528 0)
(0.926164 0.0114852 0)
(0.900528 0.0101025 0)
(0.875965 0.00891884 0)
(0.852903 0.00786985 0)
(0.831573 0.00698772 0)
(0.811907 0.00624908 0)
(0.793908 0.00560972 0)
(0.777479 0.00506583 0)
(0.762432 0.00460413 0)
(0.748638 0.00419143 0)
(0.736007 0.00384141 0)
(0.724377 0.00353322 0)
(0.713655 0.0032659 0)
(0.703726 0.00302219 0)
(0.694543 0.00280686 0)
(0.685993 0.0026236 0)
(0.678034 0.00245234 0)
(0.670595 0.00230357 0)
(0.663633 0.00216256 0)
(0.657112 0.00203978 0)
(0.650968 0.00192731 0)
(0.645185 0.001826 0)
(0.639724 0.0017301 0)
(0.634565 0.00164338 0)
(0.629675 0.00156478 0)
(0.625041 0.00149266 0)
(0.620624 0.00142378 0)
(0.616432 0.00136252 0)
(0.612425 0.00130362 0)
(0.608615 0.00124895 0)
(0.604962 0.00120047 0)
(0.601474 0.00115187 0)
(0.598129 0.00110903 0)
(0.594924 0.00106634 0)
(0.591844 0.00102825 0)
(0.588889 0.000991867 0)
(0.586042 0.000958444 0)
(0.583305 0.000925034 0)
(0.580666 0.000895547 0)
(0.578121 0.000865412 0)
(0.575666 0.000838366 0)
(0.573294 0.000812449 0)
(0.571002 0.000788384 0)
(0.568784 0.000764326 0)
(0.566638 0.000742234 0)
(0.564558 0.000720739 0)
(0.562544 0.000700266 0)
(0.560591 0.00068139 0)
(0.558695 0.000662591 0)
(0.556856 0.000645246 0)
(0.555067 0.000628028 0)
(0.553331 0.000612047 0)
(0.551641 0.000596414 0)
(0.55 0.000581311 0)
(0.548401 0.000567488 0)
(0.546845 0.000553463 0)
(0.545328 0.000540551 0)
(0.543851 0.000527431 0)
(0.542411 0.000515461 0)
(0.541007 0.000503438 0)
(0.539637 0.000492132 0)
(0.538301 0.000481158 0)
(0.536996 0.000470879 0)
(0.535721 0.000460493 0)
(0.534477 0.000450737 0)
(0.53326 0.000441111 0)
(0.532071 0.000431889 0)
(0.530908 0.000422928 0)
(0.529772 0.00041412 0)
(0.52866 0.000405966 0)
(0.527572 0.000397793 0)
(0.526506 0.000390105 0)
(0.525463 0.000382322 0)
(0.524442 0.000375081 0)
(0.523441 0.000367765 0)
(0.522461 0.000360846 0)
(0.5215 0.000354071 0)
(0.520559 0.000347413 0)
(0.519636 0.000341178 0)
(0.518731 0.000334904 0)
(0.517843 0.000328979 0)
(0.516972 0.000323016 0)
(0.516117 0.000317387 0)
(0.515278 0.000311761 0)
(0.514456 0.000306343 0)
(0.513647 0.00030108 0)
(0.512854 0.000295853 0)
(0.512075 0.000290957 0)
(0.511309 0.000286024 0)
(0.510557 0.000281379 0)
(0.509818 0.000276629 0)
(0.509092 0.000272196 0)
(0.508378 0.000267648 0)
(0.507677 0.000263426 0)
(0.506987 0.000259115 0)
(0.506309 0.000255036 0)
(0.505642 0.000251005 0)
(0.504987 0.000247015 0)
(0.504341 0.00024328 0)
(0.503707 0.000239443 0)
(0.503082 0.000235859 0)
(0.502468 0.000232165 0)
(0.501863 0.00022875 0)
(0.501268 0.000225195 0)
(0.500682 0.000221939 0)
(0.500105 0.000218529 0)
(0.499537 0.000215378 0)
(0.498978 0.000212153 0)
(0.498427 0.000209096 0)
(0.497885 0.000206045 0)
(0.49735 0.000203135 0)
(0.496824 0.000200172 0)
(0.496305 0.000197377 0)
(0.495794 0.000194512 0)
(0.495291 0.000191835 0)
(0.494795 0.000189081 0)
(0.494306 0.000186496 0)
(0.493824 0.000183866 0)
(0.493349 0.000181344 0)
(0.492881 0.000178856 0)
(0.49242 0.000176388 0)
(0.491964 0.000174038 0)
(0.491516 0.000171649 0)
(0.491073 0.000169382 0)
(0.490637 0.000167064 0)
(0.490206 0.000164888 0)
(0.489782 0.00016264 0)
(0.489363 0.000160548 0)
(0.48895 0.000158375 0)
(0.488543 0.000156353 0)
(0.488141 0.000154264 0)
(0.487744 0.000152296 0)
(0.487353 0.0001503 0)
(0.486967 0.000148384 0)
(0.486586 0.000146476 0)
(0.486209 0.000144635 0)
(0.485838 0.000142778 0)
(0.485472 0.000141005 0)
(0.48511 0.000139199 0)
(0.484753 0.000137491 0)
(0.484401 0.000135745 0)
(0.484053 0.000134091 0)
(0.483709 0.000132399 0)
(0.48337 0.0001308 0)
(0.483035 0.000129184 0)
(0.482704 0.000127607 0)
(0.482377 0.000126054 0)
(0.482054 0.00012452 0)
(0.481735 0.000123043 0)
(0.481421 0.000121549 0)
(0.48111 0.000120103 0)
(0.480802 0.000118639 0)
(0.480499 0.000117253 0)
(0.480199 0.000115851 0)
(0.479903 0.000114517 0)
(0.47961 0.000113149 0)
(0.479321 0.00011188 0)
(0.479034 0.000110573 0)
(0.478752 0.00010935 0)
(0.478472 0.000108112 0)
(0.478196 0.000106992 0)
(0.477922 0.000105853 0)
(0.477652 0.000104856 0)
(0.477384 0.0001038 0)
(0.47712 0.000102881 0)
(0.476856 0.000101831 0)
(0.476598 0.000101021 0)
(0.476337 0.000100059 0)
(0.476085 9.9369e-05 0)
(0.475828 9.84612e-05 0)
(0.475582 9.78848e-05 0)
(0.475326 9.70176e-05 0)
(0.475087 9.64649e-05 0)
(0.474831 9.56467e-05 0)
(0.4746 9.51405e-05 0)
(0.474342 9.45211e-05 0)