/*--------------------------------*- C++ -*----------------------------------*\
  =========                 |
  \\      /  F ield         | OpenFOAM: The Open Source CFD Toolbox
   \\    /   O peration     | Website:  https://openfoam.org
    \\  /    A nd           | Version:  12
     \\/     M anipulation  |
\*---------------------------------------------------------------------------*/
FoamFile
{
    format      ascii;
    class       volScalarField;
    location    "300";
    object      epsilon;
}
// * * * * * * * * * * * * * * * * * * * * * * * * * * * * * * * * * * * * * //

dimensions      [0 2 -3 0 0 0 0];

internalField   nonuniform List<scalar> 
20000
(
0.0755144
0.0283662
0.031421
0.0419331
0.0488315
0.05433
0.0597783
0.0655486
0.0703364
0.0747463
0.0777093
0.0809289
0.082994
0.0850566
0.0868103
0.0884147
0.0896359
0.0906943
0.0915359
0.0923002
0.0928745
0.0933565
0.0937353
0.0940366
0.0942899
0.094455
0.0945758
0.094649
0.0946687
0.0946586
0.0946275
0.09456
0.0944652
0.0943565
0.0942249
0.0940802
0.0939287
0.0937636
0.0935821
0.0934001
0.0932052
0.0930089
0.0928043
0.092597
0.0923875
0.0921743
0.0919568
0.0917402
0.0915197
0.0913016
0.0910816
0.0908637
0.0906429
0.0904242
0.0902072
0.0899909
0.0897757
0.0895615
0.0893495
0.0891387
0.0889297
0.0887224
0.0885167
0.0883135
0.088111
0.0879117
0.0877142
0.0875191
0.0873258
0.0871348
0.0869457
0.0867588
0.0865742
0.0863913
0.0862114
0.0860327
0.0858572
0.0856831
0.0855117
0.0853419
0.0851751
0.0850093
0.0848462
0.0846842
0.0845246
0.0843663
0.0842099
0.0840554
0.083903
0.0837526
0.0836044
0.0834588
0.0833162
0.0831763
0.0830389
0.0829046
0.0827718
0.0826418
0.0825113
0.082384
0.0822535
0.0821256
0.0819915
0.0818589
0.081721
0.0815856
0.0814428
0.0813008
0.0811536
0.0810084
0.0808582
0.0807053
0.0805507
0.0803947
0.0802417
0.0800894
0.0799444
0.0798008
0.0796642
0.0795332
0.0793986
0.0792652
0.0791346
0.0790034
0.0788815
0.0787597
0.0786418
0.0785237
0.078409
0.0782949
0.0781848
0.0780702
0.0779649
0.0778585
0.0777587
0.0776591
0.0775682
0.0774755
0.077385
0.0772911
0.0772011
0.0771064
0.0770159
0.0769227
0.0768335
0.076741
0.0766525
0.07656
0.0764782
0.0763948
0.0763145
0.0762249
0.0761416
0.0760589
0.0759797
0.0758938
0.0758187
0.0757444
0.0756762
0.075602
0.0755245
0.0754419
0.0753816
0.0753137
0.075247
0.0751793
0.0751122
0.0750469
0.0749872
0.0749256
0.0748705
0.0748111
0.0747543
0.0747032
0.0746575
0.0746126
0.0745708
0.0745284
0.0744862
0.0744465
0.0744118
0.0743778
0.074346
0.0743107
0.0742823
0.0742516
0.0742252
0.074199
0.0741779
0.0741555
0.0741419
0.0741224
0.0741134
0.0740908
0.0740792
0.0740505
0.0740387
0.0739994
0.0740094
0.0739834
0.0279446
0.0395262
0.0599301
0.0773084
0.0831678
0.0856056
0.087586
0.0899503
0.0912927
0.0923838
0.0922753
0.0924477
0.0920232
0.0916031
0.0911232
0.0906845
0.0900724
0.0894562
0.0887752
0.088137
0.0874472
0.0867686
0.0860877
0.0854135
0.0847686
0.0841153
0.0834778
0.0828531
0.0822319
0.0816284
0.0810436
0.0804673
0.0799005
0.0793521
0.0788129
0.0782883
0.0777792
0.0772831
0.0767928
0.0763208
0.0758555
0.0754046
0.0749625
0.0745315
0.0741116
0.0737013
0.0732987
0.0729072
0.0725229
0.0721491
0.071783
0.0714266
0.0710761
0.0707341
0.0704004
0.0700737
0.0697542
0.0694413
0.0691356
0.0688362
0.068543
0.068256
0.0679746
0.0676995
0.0674293
0.0671651
0.066906
0.0666524
0.0664036
0.0661597
0.0659206
0.065686
0.0654561
0.0652301
0.0650091
0.0647915
0.0645787
0.0643694
0.0641644
0.0639627
0.0637653
0.0635708
0.0633803
0.0631925
0.0630083
0.0628268
0.0626485
0.0624732
0.0623011
0.0621319
0.0619658
0.0618031
0.0616438
0.061488
0.0613353
0.0611861
0.0610393
0.0608958
0.0607532
0.0606139
0.0604736
0.0603361
0.0601955
0.0600567
0.0599148
0.0597753
0.0596319
0.0594896
0.0593446
0.0592014
0.0590562
0.0589099
0.0587636
0.0586169
0.0584731
0.0583304
0.0581936
0.0580587
0.0579295
0.0578055
0.0576815
0.0575588
0.0574395
0.0573201
0.0572078
0.0570965
0.0569889
0.0568818
0.0567779
0.0566746
0.0565754
0.0564735
0.0563781
0.0562823
0.0561917
0.0561013
0.0560175
0.0559331
0.0558514
0.0557677
0.0556873
0.0556042
0.0555244
0.0554429
0.0553647
0.0552843
0.0552073
0.0551273
0.0550544
0.0549808
0.0549106
0.0548347
0.0547628
0.0546912
0.054623
0.0545504
0.0544844
0.0544191
0.0543587
0.0542953
0.054231
0.0541615
0.0541064
0.0540479
0.0539905
0.0539325
0.0538754
0.0538189
0.0537666
0.053713
0.053664
0.0536128
0.0535629
0.0535163
0.0534737
0.0534318
0.0533925
0.0533531
0.0533146
0.0532768
0.0532432
0.0532098
0.0531794
0.0531458
0.0531177
0.0530875
0.0530616
0.053034
0.0530124
0.0529866
0.05297
0.052946
0.0529337
0.0529085
0.0528951
0.0528665
0.0528522
0.0528159
0.052815
0.0528005
0.00616111
0.0183349
0.032113
0.0491497
0.0621089
0.0722326
0.0795329
0.0850592
0.0882617
0.0902942
0.0907673
0.0909273
0.0905378
0.0898488
0.0890148
0.0881598
0.0871693
0.0861458
0.0850865
0.08407
0.0830414
0.0820383
0.0810571
0.080103
0.079192
0.0783006
0.0774384
0.0766084
0.0758003
0.075024
0.0742775
0.0735547
0.0728539
0.0721806
0.0715277
0.0708989
0.0702915
0.0697058
0.0691344
0.0685858
0.0680519
0.0675363
0.0670359
0.0665506
0.0660807
0.0656244
0.0651806
0.0647503
0.0643314
0.063925
0.0635296
0.0631458
0.0627711
0.0624067
0.0620524
0.0617071
0.0613707
0.0610427
0.0607232
0.0604115
0.0601072
0.0598104
0.0595205
0.0592376
0.058961
0.0586911
0.0584273
0.0581695
0.0579174
0.0576709
0.0574298
0.0571939
0.0569633
0.0567372
0.0565164
0.0562996
0.0560879
0.0558802
0.055677
0.0554777
0.0552829
0.0550915
0.0549042
0.0547201
0.0545398
0.0543627
0.0541889
0.0540184
0.0538512
0.0536872
0.0535263
0.0533687
0.0532145
0.0530638
0.0529161
0.0527719
0.0526301
0.0524917
0.0523546
0.0522208
0.0520871
0.0519563
0.051824
0.0516937
0.0515618
0.0514324
0.0513009
0.0511709
0.0510394
0.0509099
0.05078
0.0506501
0.0505205
0.0503914
0.0502645
0.0501391
0.0500182
0.0498994
0.0497853
0.049676
0.0495676
0.0494608
0.0493565
0.0492527
0.0491543
0.0490573
0.0489633
0.0488703
0.0487797
0.0486902
0.0486039
0.048516
0.0484329
0.0483499
0.0482709
0.0481923
0.0481186
0.048045
0.0479738
0.0479016
0.0478319
0.0477605
0.0476916
0.0476216
0.0475542
0.0474854
0.0474193
0.047351
0.0472875
0.0472238
0.0471631
0.0470988
0.0470372
0.0469755
0.0469169
0.0468554
0.0467984
0.0467419
0.0466894
0.046635
0.0465805
0.0465218
0.0464733
0.0464229
0.0463736
0.0463241
0.0462752
0.0462265
0.0461811
0.0461348
0.0460921
0.0460476
0.0460045
0.0459638
0.0459263
0.0458893
0.0458542
0.0458193
0.0457854
0.0457522
0.045722
0.0456923
0.045665
0.0456359
0.0456103
0.0455836
0.0455601
0.0455348
0.0455145
0.0454909
0.0454744
0.0454522
0.0454395
0.0454165
0.0454036
0.045378
0.0453629
0.0453294
0.0453187
0.0452943
0.00171956
0.00660896
0.0120995
0.0206252
0.029857
0.0397311
0.0490315
0.0575145
0.0640666
0.0691471
0.0723514
0.0746171
0.0758933
0.0765455
0.0766997
0.0765944
0.0762313
0.0756578
0.0749634
0.0742231
0.0734322
0.0726102
0.0717788
0.0709457
0.0701304
0.0693241
0.0685308
0.0677596
0.0670042
0.0662733
0.0655656
0.0648793
0.0642125
0.0635695
0.0629455
0.0623438
0.0617618
0.0612001
0.0606532
0.060127
0.0596161
0.0591222
0.0586439
0.0581799
0.0577311
0.0572956
0.0568729
0.0564631
0.056065
0.0556789
0.0553038
0.0549397
0.0545853
0.0542406
0.0539059
0.0535802
0.053263
0.0529543
0.0526538
0.052361
0.0520755
0.0517973
0.0515258
0.0512612
0.0510028
0.0507508
0.0505049
0.0502647
0.0500301
0.0498009
0.0495769
0.049358
0.0491442
0.0489348
0.0487303
0.0485299
0.0483343
0.0481426
0.0479551
0.0477714
0.0475919
0.0474159
0.0472436
0.0470746
0.0469091
0.0467468
0.0465877
0.0464317
0.0462787
0.0461288
0.0459818
0.0458379
0.045697
0.0455593
0.0454243
0.0452926
0.0451633
0.045037
0.0449123
0.0447908
0.0446699
0.0445518
0.0444333
0.0443168
0.0441995
0.0440847
0.0439689
0.0438547
0.0437396
0.0436268
0.043514
0.0434019
0.04329
0.043179
0.0430696
0.0429617
0.0428573
0.0427549
0.0426565
0.0425624
0.0424693
0.0423778
0.0422881
0.0421991
0.0421144
0.0420311
0.0419504
0.0418708
0.041793
0.0417165
0.0416426
0.0415677
0.0414964
0.0414255
0.0413578
0.0412906
0.0412272
0.0411641
0.0411031
0.0410417
0.0409822
0.0409214
0.0408626
0.040803
0.0407455
0.0406871
0.0406309
0.040573
0.0405186
0.0404639
0.040412
0.0403575
0.040305
0.0402521
0.040202
0.0401498
0.040101
0.0400527
0.0400075
0.0399609
0.0399144
0.0398646
0.0398226
0.0397793
0.039737
0.0396949
0.0396531
0.0396112
0.039572
0.0395324
0.0394955
0.0394571
0.0394202
0.0393854
0.0393531
0.0393214
0.0392908
0.0392607
0.0392313
0.0392029
0.0391767
0.0391511
0.0391272
0.0391026
0.0390802
0.0390572
0.0390365
0.0390147
0.0389966
0.0389764
0.0389614
0.0389425
0.0389309
0.0389115
0.0389003
0.0388787
0.0388649
0.0388371
0.0388221
0.0387903
0.000874549
0.0025868
0.00465713
0.00794262
0.0121172
0.017269
0.0230038
0.0295119
0.0359493
0.0423002
0.0476633
0.0521851
0.0556589
0.0582509
0.0600762
0.0613601
0.062155
0.062584
0.0627139
0.0626599
0.0624686
0.0621286
0.0617141
0.0612336
0.0607228
0.0601849
0.0596207
0.0590504
0.0584732
0.0578991
0.0573322
0.0567721
0.0562194
0.0556794
0.0551498
0.0546341
0.0541312
0.0536427
0.0531646
0.0527014
0.0522502
0.0518119
0.0513863
0.0509721
0.0505705
0.0501797
0.0498
0.049431
0.0490721
0.0487235
0.0483845
0.048055
0.0477341
0.0474218
0.0471182
0.0468226
0.0465346
0.0462544
0.0459813
0.0457153
0.0454558
0.0452029
0.0449562
0.0447155
0.0444807
0.0442515
0.0440279
0.0438096
0.0435964
0.043388
0.0431845
0.0429855
0.0427912
0.042601
0.0424153
0.0422334
0.0420556
0.0418816
0.0417114
0.0415448
0.0413819
0.0412222
0.041066
0.0409129
0.0407629
0.0406159
0.0404718
0.0403306
0.0401922
0.0400565
0.0399235
0.0397932
0.0396656
0.0395408
0.0394186
0.0392993
0.0391822
0.039068
0.0389555
0.0388459
0.0387373
0.0386315
0.0385258
0.0384221
0.0383181
0.0382167
0.0381147
0.0380145
0.0379136
0.0378151
0.0377168
0.0376194
0.037522
0.0374258
0.0373305
0.0372368
0.0371458
0.0370565
0.0369706
0.0368887
0.0368077
0.0367283
0.03665
0.0365727
0.0364987
0.0364263
0.036356
0.036287
0.0362194
0.0361531
0.0360889
0.0360242
0.0359623
0.0359009
0.0358422
0.0357841
0.035729
0.0356744
0.0356216
0.0355687
0.0355173
0.0354647
0.0354139
0.0353624
0.0353127
0.0352625
0.035214
0.0351641
0.035117
0.0350695
0.0350244
0.0349774
0.0349319
0.0348859
0.0348423
0.0347972
0.0347547
0.0347126
0.0346732
0.0346325
0.0345921
0.0345489
0.0345121
0.034474
0.0344371
0.0344005
0.0343641
0.0343274
0.034293
0.0342584
0.0342262
0.0341925
0.0341606
0.0341303
0.0341022
0.0340748
0.034048
0.0340217
0.0339959
0.0339713
0.0339482
0.033926
0.0339048
0.0338837
0.0338638
0.0338438
0.0338256
0.0338068
0.0337906
0.0337735
0.03376
0.033744
0.0337336
0.0337176
0.033708
0.0336901
0.0336781
0.0336565
0.0336401
0.0336049
0.000656674
0.00132178
0.00216783
0.00342214
0.00503511
0.00723226
0.00981279
0.0131023
0.0168127
0.0211512
0.0256765
0.0302672
0.034565
0.0383897
0.0416069
0.0442722
0.0463756
0.048001
0.0492018
0.050074
0.0506754
0.0510449
0.0512416
0.0512813
0.0512335
0.0511019
0.0508851
0.0506236
0.0503194
0.0499867
0.0496383
0.0492711
0.0488921
0.048509
0.0481215
0.0477345
0.0473498
0.046969
0.0465907
0.0462188
0.0458527
0.0454928
0.0451405
0.0447948
0.0444571
0.0441264
0.0438034
0.0434877
0.0431793
0.0428783
0.0425846
0.0422982
0.0420183
0.0417452
0.041479
0.0412192
0.0409655
0.0407182
0.0404768
0.0402412
0.040011
0.0397864
0.039567
0.0393527
0.0391434
0.0389389
0.0387393
0.0385441
0.0383533
0.0381669
0.0379845
0.0378062
0.0376319
0.0374612
0.0372945
0.0371311
0.0369714
0.036815
0.0366619
0.036512
0.0363653
0.0362217
0.036081
0.0359431
0.0358081
0.0356757
0.0355459
0.0354187
0.0352939
0.0351716
0.0350516
0.034934
0.0348187
0.0347061
0.0345956
0.0344878
0.034382
0.0342789
0.0341775
0.0340788
0.0339813
0.0338865
0.0337922
0.0336999
0.0336076
0.0335177
0.0334277
0.0333393
0.0332504
0.0331638
0.0330775
0.0329921
0.0329066
0.0328222
0.0327384
0.032656
0.0325756
0.0324968
0.0324209
0.0323484
0.0322769
0.032207
0.0321378
0.0320695
0.0320041
0.03194
0.0318781
0.0318173
0.0317577
0.0316994
0.0316429
0.0315862
0.0315318
0.0314779
0.0314264
0.0313755
0.0313271
0.0312792
0.031233
0.0311867
0.0311417
0.0310957
0.0310512
0.0310062
0.0309627
0.0309189
0.0308765
0.030833
0.0307916
0.0307498
0.0307101
0.0306691
0.0306292
0.0305884
0.0305499
0.0305103
0.0304728
0.0304356
0.0304006
0.0303645
0.0303287
0.0302907
0.0302579
0.0302239
0.0301911
0.0301586
0.0301264
0.0300937
0.0300629
0.0300323
0.0300037
0.0299738
0.0299457
0.0299191
0.0298943
0.0298703
0.0298464
0.0298232
0.0298001
0.0297784
0.0297578
0.0297381
0.029719
0.0297006
0.0296827
0.0296651
0.0296487
0.0296323
0.0296179
0.0296031
0.029591
0.0295775
0.0295683
0.029555
0.0295469
0.029532
0.0295219
0.0295048
0.0294892
0.0294544
0.00058635
0.000878586
0.00127391
0.00181859
0.00247072
0.0033693
0.00442245
0.00582717
0.00748516
0.00959053
0.0120582
0.0149213
0.0180662
0.0213704
0.0246294
0.0277373
0.0305521
0.0330273
0.035127
0.0368802
0.0383083
0.0394475
0.0403408
0.0410166
0.0415212
0.0418839
0.0421168
0.042253
0.0423007
0.0422837
0.0422234
0.0421071
0.0419559
0.0417787
0.0415766
0.041358
0.0411284
0.0408871
0.0406371
0.0403824
0.040125
0.0398643
0.0396045
0.0393448
0.0390867
0.0388302
0.0385765
0.0383257
0.0380782
0.0378344
0.0375947
0.0373591
0.0371273
0.0368998
0.0366767
0.0364579
0.0362432
0.0360331
0.0358271
0.0356254
0.0354276
0.0352341
0.0350444
0.0348587
0.0346769
0.0344989
0.0343246
0.0341539
0.0339868
0.0338231
0.0336628
0.0335057
0.033352
0.0332013
0.0330539
0.0329092
0.0327676
0.0326288
0.0324928
0.0323595
0.032229
0.032101
0.0319756
0.0318526
0.031732
0.0316137
0.0314977
0.0313838
0.0312721
0.0311625
0.0310549
0.0309493
0.0308458
0.0307444
0.030645
0.030548
0.0304528
0.03036
0.0302688
0.0301802
0.0300929
0.0300081
0.029924
0.0298418
0.0297599
0.0296802
0.0296006
0.0295225
0.0294439
0.0293675
0.0292912
0.0292159
0.0291403
0.0290656
0.0289912
0.0289181
0.0288465
0.0287761
0.0287083
0.0286435
0.0285796
0.0285172
0.0284552
0.0283942
0.0283357
0.0282784
0.0282231
0.028169
0.0281159
0.0280639
0.0280137
0.0279634
0.0279151
0.0278673
0.0278217
0.0277767
0.0277337
0.0276912
0.0276503
0.0276095
0.0275698
0.0275291
0.0274898
0.02745
0.0274116
0.027373
0.0273356
0.0272973
0.0272607
0.0272235
0.0271883
0.027152
0.0271166
0.0270802
0.0270458
0.0270106
0.0269771
0.0269439
0.0269125
0.02688
0.026848
0.0268141
0.0267845
0.0267536
0.0267241
0.0266949
0.026666
0.0266365
0.0266086
0.0265811
0.0265554
0.0265285
0.0265035
0.0264797
0.0264576
0.0264362
0.0264147
0.0263939
0.0263731
0.0263537
0.0263351
0.0263174
0.0262999
0.0262834
0.0262672
0.0262514
0.0262366
0.0262221
0.0262091
0.0261962
0.0261853
0.0261737
0.0261654
0.0261544
0.0261475
0.0261354
0.0261269
0.0261125
0.026099
0.0260668
0.000560629
0.000698472
0.000903822
0.0011764
0.0014785
0.00188131
0.0023322
0.00292355
0.00361876
0.00451236
0.00559987
0.00694966
0.00856486
0.0104647
0.0125943
0.0149166
0.0173261
0.0197378
0.0220475
0.0241959
0.0261331
0.0278413
0.029319
0.0305748
0.0316282
0.0325041
0.0332157
0.0337907
0.0342418
0.0345901
0.0348547
0.035042
0.0351643
0.0352353
0.0352569
0.0352443
0.0352047
0.0351325
0.0350391
0.0349275
0.0348027
0.0346623
0.0345154
0.0343601
0.0341978
0.0340306
0.0338598
0.0336866
0.0335112
0.033335
0.0331588
0.0329827
0.032807
0.0326322
0.0324588
0.0322871
0.0321169
0.0319488
0.0317829
0.0316192
0.0314577
0.0312986
0.0311419
0.0309876
0.0308358
0.0306865
0.0305397
0.0303954
0.0302536
0.0301143
0.0299774
0.0298429
0.0297108
0.029581
0.0294537
0.0293285
0.0292056
0.029085
0.0289665
0.0288502
0.0287361
0.028624
0.0285139
0.0284059
0.0282998
0.0281956
0.0280933
0.0279927
0.0278938
0.0277967
0.0277013
0.0276074
0.0275153
0.027425
0.0273364
0.0272498
0.0271648
0.0270819
0.0270006
0.0269215
0.0268437
0.0267683
0.0266937
0.0266209
0.0265484
0.0264779
0.0264076
0.0263387
0.0262693
0.0262018
0.0261343
0.0260677
0.0260006
0.0259343
0.025868
0.0258027
0.0257385
0.0256753
0.0256142
0.0255557
0.0254981
0.025442
0.0253861
0.0253311
0.0252783
0.0252266
0.0251768
0.0251282
0.0250804
0.0250338
0.0249888
0.0249438
0.0249006
0.0248578
0.0248171
0.024777
0.0247387
0.0247008
0.0246643
0.0246281
0.0245927
0.0245566
0.0245217
0.0244863
0.0244522
0.024418
0.0243848
0.0243509
0.0243184
0.0242851
0.0242536
0.0242214
0.0241898
0.024157
0.0241262
0.0240946
0.0240644
0.0240345
0.0240061
0.0239766
0.0239478
0.0239174
0.0238903
0.0238621
0.0238352
0.0238087
0.0237825
0.0237555
0.0237301
0.0237051
0.0236818
0.0236573
0.0236348
0.0236134
0.0235934
0.0235742
0.0235546
0.0235358
0.0235167
0.0234993
0.0234824
0.0234662
0.02345
0.0234352
0.0234203
0.0234059
0.0233923
0.0233794
0.0233675
0.0233561
0.0233462
0.0233361
0.0233287
0.0233195
0.0233137
0.0233038
0.0232969
0.0232847
0.0232732
0.0232445
0.000550227
0.000618003
0.000729578
0.000880114
0.00103896
0.00124312
0.00146183
0.00173458
0.00204518
0.00243022
0.00289182
0.00346876
0.00417088
0.00504135
0.00608477
0.00732419
0.00874623
0.0103388
0.0120542
0.0138437
0.0156443
0.0174016
0.0190682
0.0206117
0.0220118
0.0232659
0.0243682
0.0253312
0.0261592
0.0268675
0.0274675
0.027971
0.0283871
0.0287294
0.029004
0.029222
0.0293922
0.0295176
0.0296055
0.0296603
0.0296897
0.0296891
0.0296756
0.0296425
0.029592
0.0295294
0.0294557
0.0293734
0.0292819
0.0291848
0.0290829
0.0289759
0.028865
0.0287511
0.028635
0.0285173
0.028398
0.0282779
0.0281577
0.0280371
0.0279164
0.0277961
0.0276763
0.027557
0.0274387
0.0273212
0.0272048
0.0270896
0.0269756
0.0268628
0.0267513
0.0266412
0.0265326
0.0264253
0.0263195
0.0262151
0.0261122
0.0260108
0.0259109
0.0258124
0.0257155
0.02562
0.0255261
0.0254336
0.0253425
0.0252528
0.0251645
0.0250775
0.0249918
0.0249075
0.0248243
0.0247425
0.0246619
0.0245828
0.024505
0.0244288
0.0243541
0.0242811
0.0242094
0.0241398
0.0240713
0.024005
0.0239395
0.0238756
0.023812
0.0237502
0.0236886
0.0236282
0.0235672
0.0235078
0.0234482
0.0233895
0.0233301
0.0232713
0.0232121
0.0231538
0.0230962
0.0230392
0.0229841
0.022931
0.0228789
0.0228282
0.0227776
0.0227278
0.0226799
0.022633
0.0225878
0.0225439
0.0225007
0.0224588
0.0224182
0.0223777
0.0223389
0.0223005
0.022264
0.0222281
0.0221937
0.0221597
0.0221272
0.0220949
0.0220634
0.0220312
0.0220001
0.0219685
0.0219382
0.0219078
0.0218784
0.0218483
0.0218193
0.0217895
0.0217613
0.0217326
0.0217044
0.0216748
0.021647
0.0216186
0.0215914
0.0215642
0.0215384
0.0215115
0.0214855
0.021458
0.0214332
0.0214072
0.0213827
0.0213584
0.0213345
0.0213096
0.0212863
0.0212634
0.0212419
0.0212196
0.0211992
0.0211796
0.0211613
0.0211439
0.021126
0.0211089
0.0210914
0.0210756
0.0210601
0.0210452
0.0210301
0.0210167
0.021003
0.0209897
0.0209772
0.0209654
0.0209545
0.0209443
0.0209352
0.0209263
0.0209196
0.0209119
0.0209069
0.020899
0.0208936
0.0208833
0.0208734
0.0208486
0.000545458
0.000580006
0.000640656
0.000727493
0.000818366
0.000932088
0.00105122
0.00119268
0.00134834
0.00153176
0.00174363
0.00199903
0.00230288
0.00267774
0.00313082
0.00368636
0.0043552
0.00515332
0.00608364
0.00714586
0.00832433
0.00959698
0.0109301
0.0122889
0.0136341
0.0149405
0.0161769
0.0173322
0.018391
0.0193534
0.0202172
0.0209872
0.0216662
0.0222628
0.022782
0.0232321
0.0236196
0.0239507
0.0242312
0.0244661
0.024663
0.0248214
0.0249513
0.0250536
0.0251307
0.0251865
0.025223
0.025244
0.0252476
0.0252414
0.0252245
0.0251958
0.025159
0.0251148
0.0250639
0.025008
0.0249464
0.0248811
0.0248129
0.0247411
0.0246667
0.0245901
0.0245119
0.024432
0.0243513
0.0242693
0.0241868
0.024104
0.0240209
0.0239375
0.0238542
0.023771
0.0236881
0.0236054
0.0235233
0.0234415
0.0233604
0.0232798
0.0231999
0.0231208
0.0230424
0.0229648
0.022888
0.022812
0.0227369
0.0226626
0.0225892
0.0225165
0.0224447
0.0223738
0.0223036
0.0222342
0.0221657
0.0220983
0.0220317
0.0219664
0.0219022
0.0218394
0.0217777
0.0217176
0.0216586
0.0216013
0.0215448
0.0214898
0.021435
0.0213816
0.0213283
0.0212761
0.0212233
0.0211716
0.0211196
0.0210682
0.0210161
0.0209642
0.0209118
0.0208599
0.0208085
0.0207573
0.0207076
0.0206594
0.0206123
0.0205665
0.0205206
0.0204755
0.0204321
0.0203894
0.0203484
0.0203086
0.0202695
0.0202316
0.020195
0.0201586
0.0201236
0.020089
0.0200563
0.0200241
0.0199932
0.0199628
0.0199337
0.0199049
0.0198768
0.0198483
0.0198205
0.0197925
0.0197656
0.0197386
0.0197125
0.0196858
0.01966
0.0196334
0.0196083
0.0195826
0.0195575
0.0195309
0.0195059
0.0194803
0.0194557
0.0194311
0.0194076
0.0193832
0.0193595
0.0193347
0.019312
0.019288
0.0192655
0.0192432
0.0192212
0.0191982
0.0191767
0.0191556
0.0191358
0.0191152
0.0190966
0.0190786
0.0190617
0.0190458
0.0190294
0.0190138
0.0189976
0.0189833
0.018969
0.0189553
0.0189413
0.018929
0.0189164
0.018904
0.0188925
0.0188816
0.0188715
0.0188623
0.0188539
0.0188459
0.0188398
0.0188332
0.018829
0.0188226
0.0188184
0.0188099
0.0188017
0.0187805
0.00054288
0.000561118
0.000593284
0.000643351
0.000697265
0.000764176
0.000834238
0.000914593
0.00100111
0.00109882
0.0012075
0.00133272
0.00147631
0.00164714
0.00184794
0.00209111
0.00238372
0.00273718
0.00316236
0.00367035
0.00426655
0.00495744
0.00574
0.00660941
0.0075478
0.00854272
0.00956654
0.0106019
0.0116226
0.0126142
0.01356
0.0144517
0.0152807
0.0160455
0.0167439
0.0173785
0.0179506
0.0184641
0.0189225
0.0193292
0.0196902
0.0200066
0.020285
0.0205277
0.0207382
0.0209197
0.0210748
0.0212069
0.0213168
0.0214083
0.0214835
0.0215427
0.0215882
0.0216216
0.0216437
0.0216568
0.0216595
0.0216561
0.0216463
0.021629
0.0216064
0.021579
0.0215474
0.0215117
0.0214731
0.0214308
0.0213863
0.0213398
0.021291
0.0212404
0.0211884
0.021135
0.0210807
0.0210253
0.0209693
0.0209124
0.0208552
0.0207977
0.0207398
0.0206817
0.0206236
0.0205655
0.0205073
0.0204494
0.0203915
0.020334
0.0202766
0.0202194
0.0201626
0.020106
0.0200497
0.0199937
0.0199381
0.0198831
0.0198286
0.0197748
0.0197218
0.0196697
0.0196185
0.0195684
0.0195192
0.0194714
0.0194242
0.0193781
0.0193322
0.0192873
0.0192425
0.0191984
0.0191537
0.0191097
0.0190652
0.0190211
0.018976
0.0189309
0.0188852
0.0188395
0.0187941
0.0187485
0.0187041
0.0186607
0.0186183
0.0185771
0.0185357
0.0184951
0.0184558
0.0184171
0.01838
0.018344
0.0183087
0.0182745
0.0182415
0.0182088
0.0181774
0.0181463
0.0181169
0.0180881
0.0180605
0.0180334
0.0180074
0.0179818
0.0179569
0.0179317
0.0179071
0.0178823
0.0178586
0.0178347
0.0178117
0.0177882
0.0177654
0.0177418
0.0177195
0.0176967
0.0176744
0.0176507
0.0176284
0.0176054
0.0175833
0.017561
0.0175398
0.0175176
0.0174963
0.0174739
0.017453
0.017431
0.0174104
0.0173898
0.0173696
0.0173484
0.0173286
0.0173091
0.0172906
0.0172716
0.0172545
0.0172379
0.0172223
0.0172076
0.0171924
0.0171781
0.0171633
0.0171502
0.0171372
0.0171246
0.0171116
0.0171005
0.0170888
0.0170773
0.0170666
0.0170566
0.0170471
0.0170386
0.0170308
0.0170236
0.0170179
0.0170122
0.0170085
0.0170035
0.0170001
0.0169934
0.0169866
0.0169689
0.000541242
0.000550907
0.000567315
0.000595192
0.000627029
0.000667055
0.000709708
0.000757882
0.000809334
0.000865932
0.000927152
0.000995286
0.00107049
0.00115665
0.00125415
0.00136854
0.00150192
0.00166038
0.00184898
0.00207479
0.00234313
0.00266344
0.00303988
0.0034802
0.00398388
0.00455599
0.00518888
0.00587978
0.00661499
0.00738495
0.00817363
0.00896892
0.00975558
0.010524
0.0112633
0.0119684
0.0126328
0.0132547
0.0138323
0.0143652
0.0148554
0.0153027
0.0157107
0.0160804
0.0164149
0.0167162
0.016987
0.0172295
0.0174459
0.0176383
0.0178092
0.0179599
0.0180923
0.0182081
0.0183085
0.0183955
0.0184693
0.0185321
0.0185849
0.018628
0.0186624
0.0186891
0.0187088
0.0187219
0.0187297
0.0187312
0.018729
0.0187228
0.0187119
0.0186976
0.0186802
0.0186599
0.0186372
0.0186119
0.0185849
0.0185555
0.0185247
0.0184927
0.018459
0.0184242
0.0183884
0.0183516
0.018314
0.0182759
0.018237
0.0181977
0.0181578
0.0181176
0.018077
0.0180361
0.0179949
0.0179535
0.0179119
0.0178704
0.0178289
0.0177876
0.0177467
0.0177062
0.0176662
0.0176269
0.0175881
0.0175504
0.0175129
0.0174763
0.0174396
0.0174037
0.0173675
0.0173319
0.0172955
0.0172594
0.0172227
0.0171859
0.0171481
0.0171101
0.017071
0.0170318
0.0169924
0.0169525
0.0169134
0.0168749
0.0168373
0.0168006
0.0167638
0.0167275
0.0166923
0.0166576
0.0166243
0.0165919
0.0165603
0.0165296
0.0165
0.0164708
0.0164427
0.016415
0.0163888
0.0163632
0.0163387
0.0163146
0.0162917
0.0162691
0.0162472
0.0162251
0.0162036
0.0161819
0.0161611
0.0161403
0.0161202
0.0160996
0.0160798
0.0160591
0.0160395
0.0160195
0.0159999
0.015979
0.0159593
0.0159389
0.0159192
0.0158993
0.0158802
0.0158602
0.0158411
0.015821
0.015802
0.0157819
0.0157631
0.0157443
0.0157257
0.0157062
0.015688
0.0156699
0.0156528
0.0156352
0.0156194
0.015604
0.0155895
0.0155758
0.0155619
0.0155488
0.0155351
0.0155233
0.0155114
0.0154998
0.0154879
0.0154779
0.0154673
0.0154566
0.0154467
0.0154374
0.0154285
0.0154206
0.0154133
0.0154067
0.0154013
0.0153963
0.0153929
0.015389
0.0153863
0.0153811
0.0153756
0.0153613
0.000540074
0.000544667
0.000552522
0.000566979
0.00058499
0.000608477
0.000634352
0.000663714
0.000695223
0.000729579
0.000766175
0.00080608
0.000848858
0.000896468
0.000948498
0.00100764
0.00107413
0.00115092
0.00123975
0.00134368
0.00146532
0.00160984
0.00177936
0.00198065
0.0022157
0.00249178
0.00280953
0.00317438
0.00358517
0.00404312
0.00454368
0.00508366
0.00565466
0.00624999
0.00685969
0.007476
0.00808948
0.00869318
0.00928062
0.00984616
0.0103873
0.0108998
0.0113836
0.0118365
0.0122595
0.0126523
0.0130162
0.0133518
0.0136609
0.0139442
0.0142039
0.0144411
0.0146572
0.0148538
0.015032
0.0151936
0.0153392
0.0154706
0.0155887
0.0156945
0.0157889
0.0158728
0.0159472
0.0160124
0.0160699
0.0161194
0.0161622
0.016199
0.0162297
0.0162549
0.0162754
0.0162911
0.016303
0.0163107
0.0163154
0.016316
0.0163145
0.0163103
0.0163031
0.0162939
0.0162825
0.0162693
0.0162542
0.0162378
0.0162196
0.0162005
0.0161797
0.0161581
0.0161354
0.0161116
0.0160869
0.0160614
0.0160352
0.0160084
0.0159811
0.0159536
0.0159258
0.015898
0.0158702
0.0158427
0.0158151
0.0157882
0.0157613
0.0157348
0.015708
0.0156816
0.0156546
0.015628
0.0156003
0.0155726
0.015544
0.015515
0.0154848
0.0154542
0.0154223
0.0153898
0.015357
0.0153232
0.0152897
0.0152564
0.0152237
0.0151918
0.0151597
0.0151279
0.015097
0.0150662
0.0150368
0.0150081
0.0149801
0.0149529
0.0149267
0.0149009
0.0148762
0.0148517
0.0148287
0.0148062
0.0147847
0.0147635
0.0147436
0.0147239
0.0147049
0.0146858
0.0146672
0.0146485
0.0146308
0.0146128
0.0145956
0.014578
0.0145609
0.0145431
0.0145263
0.014509
0.0144921
0.014474
0.0144569
0.0144391
0.0144219
0.0144043
0.0143874
0.0143696
0.0143527
0.0143349
0.0143178
0.0142996
0.0142827
0.0142656
0.0142487
0.0142308
0.0142142
0.0141975
0.0141816
0.0141654
0.0141509
0.0141366
0.0141231
0.0141104
0.0140975
0.0140855
0.014073
0.0140624
0.0140515
0.014041
0.0140302
0.0140213
0.0140118
0.0140019
0.013993
0.0139842
0.0139759
0.0139686
0.0139617
0.0139557
0.0139505
0.0139459
0.0139428
0.0139396
0.0139374
0.0139334
0.0139291
0.013918
0.000539161
0.000540424
0.00054353
0.000549995
0.000559297
0.000572244
0.000587289
0.000604806
0.000623942
0.000644979
0.000667345
0.000691582
0.000717143
0.000745071
0.000774842
0.000807818
0.000843865
0.00088425
0.00092966
0.000981424
0.00104033
0.00110901
0.00118777
0.00128056
0.001388
0.00151439
0.00166096
0.00183237
0.00203007
0.00225781
0.00251669
0.00280931
0.00313512
0.00349414
0.00388385
0.00430163
0.00474286
0.00520254
0.00567545
0.00615497
0.00663697
0.00711467
0.00758507
0.00804301
0.00848649
0.0089123
0.00931948
0.00970613
0.0100723
0.0104172
0.0107413
0.0110447
0.0113282
0.0115923
0.0118379
0.0120658
0.0122767
0.0124719
0.0126521
0.0128183
0.0129712
0.0131116
0.0132406
0.0133585
0.0134666
0.013565
0.0136548
0.0137363
0.0138104
0.0138772
0.0139375
0.0139915
0.0140401
0.0140831
0.0141215
0.014155
0.0141844
0.01421
0.0142317
0.0142501
0.0142652
0.0142775
0.014287
0.0142941
0.0142986
0.0143014
0.0143014
0.0143001
0.0142969
0.0142918
0.0142851
0.014277
0.0142675
0.0142569
0.0142452
0.0142326
0.0142192
0.0142052
0.0141908
0.0141761
0.0141609
0.0141458
0.0141302
0.0141149
0.0140987
0.0140826
0.0140655
0.0140485
0.0140302
0.0140116
0.0139918
0.0139711
0.0139492
0.0139264
0.0139023
0.0138772
0.0138513
0.0138241
0.0137968
0.0137691
0.0137419
0.0137153
0.0136883
0.0136614
0.0136349
0.0136085
0.0135832
0.0135582
0.0135339
0.0135105
0.0134877
0.0134653
0.013444
0.0134229
0.0134032
0.0133837
0.0133651
0.013347
0.0133301
0.0133132
0.0132972
0.0132809
0.0132653
0.0132496
0.0132349
0.0132197
0.0132054
0.0131906
0.0131765
0.0131615
0.0131475
0.0131328
0.0131186
0.0131034
0.0130891
0.0130739
0.0130592
0.013044
0.0130294
0.0130139
0.0129994
0.0129838
0.0129687
0.0129526
0.0129376
0.0129223
0.0129071
0.0128909
0.012876
0.0128608
0.0128461
0.0128313
0.0128181
0.0128049
0.0127924
0.0127806
0.0127686
0.0127576
0.0127463
0.0127368
0.0127269
0.0127175
0.0127078
0.0127
0.0126916
0.0126826
0.0126748
0.0126666
0.0126588
0.012652
0.0126455
0.01264
0.0126351
0.012631
0.012628
0.0126252
0.0126234
0.0126203
0.012617
0.0126088
0.000538255
0.000537313
0.000537711
0.00053941
0.000543231
0.000549401
0.000557331
0.000567058
0.000578071
0.000590531
0.000603954
0.000618616
0.000634044
0.000650796
0.000668434
0.000687634
0.000708238
0.000730799
0.000755546
0.000783203
0.000813773
0.000848754
0.000887885
0.000933116
0.000984572
0.00104412
0.0011126
0.00119222
0.00128385
0.00139001
0.00151211
0.00165262
0.00181294
0.00199495
0.00219994
0.0024289
0.00268218
0.00295905
0.003259
0.00357919
0.00391842
0.00427218
0.00463832
0.00501201
0.00539057
0.00576966
0.00614677
0.00651821
0.00688219
0.00723601
0.00757851
0.00790815
0.00822421
0.0085259
0.00881301
0.00908544
0.00934311
0.00958651
0.00981574
0.0100313
0.0102337
0.0104233
0.0106009
0.0107667
0.0109217
0.0110661
0.0112006
0.0113257
0.011442
0.0115499
0.0116499
0.0117425
0.0118283
0.0119074
0.0119804
0.0120476
0.0121093
0.012166
0.0122179
0.0122653
0.0123085
0.0123478
0.0123832
0.0124154
0.0124441
0.0124701
0.0124928
0.012513
0.0125306
0.0125458
0.0125586
0.0125693
0.0125779
0.0125848
0.0125899
0.0125936
0.0125958
0.0125969
0.0125971
0.0125964
0.0125946
0.0125924
0.0125891
0.0125858
0.0125811
0.0125763
0.01257
0.0125634
0.0125553
0.0125465
0.0125363
0.0125247
0.0125117
0.0124973
0.0124819
0.0124647
0.0124466
0.0124265
0.0124061
0.0123847
0.0123637
0.012343
0.0123216
0.0123
0.0122784
0.0122567
0.0122358