/*--------------------------------*- C++ -*----------------------------------*\
  =========                 |
  \\      /  F ield         | OpenFOAM: The Open Source CFD Toolbox
   \\    /   O peration     | Website:  https://openfoam.org
    \\  /    A nd           | Version:  12
     \\/     M anipulation  |
\*---------------------------------------------------------------------------*/
FoamFile
{
    format      ascii;
    class       volScalarField;
    location    "300";
    object      k;
}
// * * * * * * * * * * * * * * * * * * * * * * * * * * * * * * * * * * * * * //

dimensions      [0 2 -2 0 0 0 0];

internalField   nonuniform List<scalar> 
20000
(
0.00121539
0.000456549
0.000505717
0.000674908
0.000785936
0.000874432
0.000962123
0.001055
0.00113205
0.00120303
0.00125072
0.00130254
0.00133578
0.00136897
0.0013972
0.00142302
0.00144268
0.00145971
0.00147326
0.00148556
0.0014948
0.00150256
0.00150866
0.00151351
0.00151758
0.00152024
0.00152218
0.00152336
0.00152368
0.00152352
0.00152301
0.00152193
0.0015204
0.00151865
0.00151654
0.00151421
0.00151177
0.00150911
0.00150619
0.00150326
0.00150012
0.00149696
0.00149367
0.00149033
0.00148696
0.00148353
0.00148003
0.00147655
0.001473
0.00146949
0.00146594
0.00146244
0.00145888
0.00145536
0.00145187
0.00144839
0.00144492
0.00144148
0.00143806
0.00143467
0.00143131
0.00142797
0.00142466
0.00142139
0.00141813
0.00141492
0.00141174
0.0014086
0.00140549
0.00140242
0.00139937
0.00139636
0.00139339
0.00139045
0.00138755
0.00138468
0.00138185
0.00137905
0.00137629
0.00137356
0.00137087
0.0013682
0.00136558
0.00136297
0.0013604
0.00135786
0.00135534
0.00135285
0.0013504
0.00134798
0.00134559
0.00134324
0.00134094
0.00133868
0.00133647
0.0013343
0.00133216
0.00133007
0.00132797
0.00132592
0.00132384
0.00132179
0.00131966
0.00131754
0.00131534
0.00131319
0.00131092
0.00130866
0.00130631
0.00130399
0.0013016
0.00129917
0.0012967
0.00129421
0.00129174
0.00128929
0.00128694
0.00128462
0.00128241
0.0012803
0.00127814
0.00127599
0.00127388
0.00127176
0.00126979
0.00126782
0.00126591
0.00126401
0.00126216
0.00126031
0.00125854
0.00125669
0.00125499
0.00125327
0.00125166
0.00125005
0.00124858
0.00124709
0.00124564
0.00124413
0.0012427
0.00124118
0.00123973
0.00123824
0.00123681
0.00123533
0.00123391
0.00123243
0.00123111
0.00122976
0.00122847
0.00122705
0.00122571
0.00122438
0.0012231
0.00122173
0.00122051
0.0012193
0.0012182
0.00121701
0.00121577
0.00121443
0.00121344
0.00121234
0.00121126
0.00121017
0.00120909
0.00120802
0.00120705
0.00120604
0.00120514
0.00120417
0.00120324
0.0012024
0.00120165
0.00120091
0.00120021
0.00119952
0.00119881
0.00119815
0.00119757
0.00119701
0.00119648
0.0011959
0.00119543
0.00119493
0.00119449
0.00119406
0.00119371
0.00119334
0.0011931
0.00119278
0.00119264
0.0011923
0.00119213
0.00119169
0.00119151
0.00119091
0.00119107
0.00119066
0.0030952
0.00342052
0.00442796
0.00580079
0.00659014
0.00721084
0.00780963
0.00842532
0.00891413
0.00935079
0.00962774
0.00992736
0.0101077
0.0102865
0.0104341
0.0105669
0.0106621
0.0107423
0.0108021
0.0108554
0.0108912
0.0109191
0.010938
0.0109504
0.0109591
0.0109602
0.0109578
0.0109517
0.0109411
0.0109284
0.0109142
0.0108971
0.0108781
0.0108581
0.0108365
0.0108141
0.0107914
0.0107678
0.010743
0.0107185
0.0106931
0.0106679
0.0106421
0.0106163
0.0105906
0.0105647
0.0105387
0.0105129
0.0104869
0.0104614
0.0104358
0.0104106
0.0103853
0.0103603
0.0103356
0.0103112
0.0102869
0.0102628
0.0102391
0.0102156
0.0101924
0.0101694
0.0101466
0.0101242
0.010102
0.0100801
0.0100584
0.0100371
0.010016
0.0099952
0.00997464
0.00995436
0.00993435
0.00991456
0.00989511
0.00987582
0.00985689
0.00983815
0.00981971
0.00980146
0.00978355
0.00976578
0.00974832
0.00973099
0.00971394
0.00969706
0.00968038
0.00966392
0.00964769
0.00963167
0.00961588
0.00960035
0.00958514
0.00957021
0.00955556
0.00954123
0.0095271
0.00951327
0.00949945
0.00948599
0.00947229
0.0094589
0.00944498
0.00943123
0.00941695
0.00940296
0.00938831
0.00937376
0.00935864
0.00934375
0.00932844
0.00931288
0.00929712
0.0092812
0.00926545
0.00924973
0.00923468
0.00921975
0.0092055
0.00919194
0.00917815
0.00916445
0.00915099
0.00913742
0.00912477
0.00911218
0.00909998
0.00908784
0.00907598
0.00906421
0.0090529
0.00904114
0.00903025
0.00901925
0.00900891
0.0089986
0.00898916
0.00897959
0.00897031
0.00896076
0.0089516
0.00894197
0.00893277
0.00892327
0.00891419
0.00890482
0.00889586
0.00888644
0.00887799
0.00886938
0.00886119
0.0088522
0.00884373
0.00883522
0.00882712
0.00881843
0.00881062
0.00880292
0.00879588
0.00878831
0.00878048
0.00877193
0.00876555
0.00875854
0.00875165
0.0087447
0.00873783
0.00873096
0.00872465
0.00871822
0.00871243
0.00870618
0.00870014
0.00869468
0.00868978
0.00868496
0.00868038
0.00867582
0.00867121
0.00866682
0.00866299
0.00865925
0.00865577
0.00865194
0.00864883
0.00864548
0.00864258
0.00863968
0.00863735
0.00863474
0.00863307
0.00863087
0.00862987
0.00862757
0.00862643
0.00862364
0.0086224
0.00861856
0.0086191
0.00861695
0.00355493
0.00360062
0.00411383
0.00536328
0.00668227
0.00807074
0.00935278
0.0105356
0.0114748
0.0122836
0.0128606
0.0134051
0.013795
0.0141439
0.0144336
0.0146883
0.0148831
0.0150484
0.0151797
0.0152948
0.0153818
0.0154539
0.0155103
0.0155549
0.0155912
0.015616
0.0156329
0.0156435
0.015647
0.0156462
0.0156421
0.0156331
0.0156205
0.0156059
0.0155882
0.0155689
0.0155485
0.0155263
0.0155021
0.0154777
0.0154517
0.0154254
0.0153982
0.0153706
0.0153427
0.0153143
0.0152856
0.0152568
0.0152276
0.0151987
0.0151696
0.0151408
0.0151116
0.0150827
0.0150541
0.0150255
0.0149971
0.0149689
0.0149409
0.0149132
0.0148856
0.0148583
0.0148312
0.0148044
0.0147778
0.0147516
0.0147256
0.0146999
0.0146745
0.0146493
0.0146245
0.0145999
0.0145756
0.0145516
0.0145279
0.0145044
0.0144813
0.0144584
0.0144359
0.0144135
0.0143916
0.0143698
0.0143483
0.0143271
0.0143061
0.0142853
0.0142648
0.0142445
0.0142244
0.0142047
0.0141851
0.0141659
0.014147
0.0141285
0.0141103
0.0140925
0.014075
0.0140578
0.0140406
0.014024
0.014007
0.0139905
0.0139733
0.0139563
0.0139387
0.0139215
0.0139034
0.0138855
0.0138668
0.0138485
0.0138296
0.0138104
0.0137908
0.0137711
0.0137514
0.0137319
0.013713
0.0136943
0.0136765
0.0136596
0.0136423
0.0136252
0.0136082
0.0135911
0.0135751
0.0135593
0.0135439
0.0135286
0.0135136
0.0134988
0.0134845
0.0134697
0.0134559
0.013442
0.0134289
0.0134159
0.013404
0.0133919
0.0133802
0.0133682
0.0133567
0.0133445
0.0133329
0.0133208
0.0133093
0.0132975
0.0132862
0.0132742
0.0132635
0.0132525
0.0132421
0.0132307
0.0132199
0.013209
0.0131987
0.0131876
0.0131776
0.0131678
0.0131588
0.0131491
0.0131391
0.0131281
0.0131199
0.0131109
0.0131021
0.0130932
0.0130844
0.0130755
0.0130674
0.0130591
0.0130517
0.0130435
0.0130358
0.0130288
0.0130226
0.0130165
0.0130106
0.0130047
0.0129988
0.0129932
0.0129883
0.0129836
0.0129791
0.0129744
0.0129704
0.0129662
0.0129625
0.0129589
0.0129559
0.0129528
0.0129507
0.0129482
0.0129469
0.0129444
0.0129429
0.0129398
0.0129379
0.0129331
0.0129324
0.0129283
0.00376345
0.00367998
0.00376213
0.00416026
0.00503523
0.00623646
0.00752921
0.00891374
0.0101731
0.0113387
0.0122827
0.0131475
0.0138485
0.014461
0.0149771
0.0154268
0.0157887
0.0160995
0.0163568
0.0165817
0.0167643
0.0169208
0.0170512
0.0171615
0.0172558
0.0173324
0.0173952
0.017447
0.0174875
0.0175204
0.0175456
0.0175638
0.0175758
0.0175834
0.0175859
0.017585
0.0175815
0.0175745
0.0175642
0.0175526
0.0175383
0.0175228
0.0175055
0.0174868
0.0174674
0.0174466
0.0174249
0.0174026
0.0173795
0.0173561
0.0173321
0.0173079
0.0172831
0.0172582
0.0172332
0.0172081
0.0171828
0.0171575
0.0171322
0.0171069
0.0170816
0.0170564
0.0170312
0.0170061
0.0169811
0.0169564
0.0169317
0.0169073
0.0168829
0.0168588
0.0168348
0.0168111
0.0167875
0.0167641
0.016741
0.016718
0.0166954
0.0166729
0.0166506
0.0166286
0.0166068
0.0165852
0.0165639
0.0165427
0.0165218
0.016501
0.0164804
0.01646
0.0164399
0.0164199
0.0164002
0.0163808
0.0163616
0.0163429
0.0163244
0.0163063
0.0162885
0.016271
0.0162536
0.0162367
0.0162195
0.0162029
0.0161855
0.0161683
0.0161505
0.0161331
0.0161147
0.0160966
0.0160774
0.0160587
0.0160394
0.0160197
0.0159994
0.015979
0.0159584
0.015938
0.0159181
0.0158984
0.0158796
0.0158619
0.0158437
0.0158257
0.0158077
0.0157895
0.0157726
0.0157557
0.0157394
0.0157232
0.0157072
0.0156915
0.0156763
0.0156605
0.0156458
0.0156311
0.0156172
0.0156034
0.0155908
0.015578
0.0155657
0.015553
0.0155408
0.0155279
0.0155156
0.0155028
0.0154905
0.0154779
0.0154659
0.0154532
0.0154417
0.0154299
0.0154188
0.0154067
0.0153951
0.0153833
0.0153722
0.0153603
0.0153496
0.0153391
0.0153294
0.0153189
0.0153081
0.0152961
0.0152874
0.0152775
0.015268
0.0152584
0.0152489
0.0152392
0.0152303
0.0152213
0.0152133
0.0152043
0.015196
0.0151886
0.0151819
0.0151754
0.015169
0.0151626
0.0151562
0.0151503
0.0151449
0.0151399
0.0151351
0.0151302
0.0151258
0.0151215
0.0151175
0.0151138
0.0151106
0.0151076
0.0151053
0.015103
0.0151018
0.0150995
0.0150982
0.0150953
0.0150934
0.0150889
0.0150872
0.0150818
0.00382063
0.00375777
0.00369075
0.0037345
0.00395229
0.00445011
0.00519593
0.00620958
0.00733339
0.0085918
0.00977949
0.0109195
0.0119288
0.0128208
0.0135943
0.0142809
0.014861
0.0153662
0.0157984
0.0161795
0.0165011
0.0167828
0.0170245
0.0172358
0.0174202
0.0175779
0.0177137
0.0178315
0.0179317
0.018019
0.0180932
0.0181564
0.0182096
0.0182549
0.0182922
0.0183234
0.0183487
0.018369
0.0183839
0.0183956
0.018403
0.0184075
0.0184089
0.0184078
0.0184047
0.0183991
0.0183917
0.0183828
0.0183722
0.0183606
0.0183478
0.0183341
0.018319
0.0183035
0.0182874
0.0182705
0.0182531
0.0182352
0.018217
0.0181984
0.0181795
0.0181603
0.0181408
0.0181212
0.0181014
0.0180816
0.0180617
0.0180417
0.0180217
0.0180016
0.0179816
0.0179615
0.0179415
0.0179216
0.0179017
0.0178818
0.0178622
0.0178425
0.017823
0.0178036
0.0177843
0.0177651
0.0177461
0.0177271
0.0177083
0.0176896
0.0176709
0.0176524
0.017634
0.0176158
0.0175976
0.0175797
0.017562
0.0175447
0.0175275
0.0175108
0.0174942
0.0174781
0.0174619
0.0174463
0.0174304
0.017415
0.0173989
0.0173831
0.0173664
0.0173502
0.017333
0.017316
0.0172979
0.0172802
0.0172617
0.0172429
0.0172232
0.0172033
0.017183
0.0171628
0.0171431
0.0171234
0.0171048
0.0170872
0.0170691
0.0170512
0.0170329
0.0170147
0.0169976
0.0169806
0.0169642
0.0169479
0.0169318
0.0169159
0.0169006
0.0168847
0.0168699
0.016855
0.0168411
0.0168272
0.0168146
0.0168017
0.0167894
0.0167768
0.0167646
0.0167516
0.0167392
0.0167263
0.016714
0.0167014
0.0166893
0.0166765
0.0166649
0.0166529
0.0166417
0.0166295
0.0166178
0.0166056
0.0165943
0.0165822
0.0165713
0.0165605
0.0165507
0.0165398
0.0165287
0.0165164
0.0165075
0.0164972
0.0164874
0.0164776
0.0164678
0.0164576
0.0164484
0.0164392
0.0164309
0.0164215
0.016413
0.0164055
0.0163987
0.0163921
0.0163854
0.0163789
0.0163721
0.0163661
0.0163606
0.0163555
0.0163505
0.0163456
0.0163411
0.0163367
0.0163327
0.0163291
0.0163258
0.016323
0.0163208
0.0163189
0.0163178
0.0163161
0.0163151
0.0163128
0.0163112
0.0163076
0.0163053
0.0162992
0.00384396
0.00383108
0.00376466
0.00367993
0.0036861
0.00376945
0.00398483
0.00442406
0.00502145
0.00584576
0.00679529
0.00785324
0.00892857
0.00997726
0.0109525
0.0118582
0.0126702
0.0133988
0.0140402
0.0146137
0.0151133
0.0155557
0.0159436
0.0162863
0.0165884
0.0168536
0.0170871
0.017294
0.0174755
0.0176375
0.0177795
0.0179053
0.0180161
0.0181144
0.0182005
0.0182771
0.0183439
0.0184032
0.0184544
0.0184997
0.0185385
0.0185722
0.0186011
0.0186254
0.0186462
0.0186631
0.0186769
0.0186878
0.018696
0.0187021
0.0187059
0.018708
0.0187078
0.0187065
0.0187037
0.0186996
0.0186942
0.0186878
0.0186805
0.0186723
0.0186633
0.0186535
0.0186431
0.0186321
0.0186205
0.0186086
0.0185963
0.0185835
0.0185704
0.018557
0.0185433
0.0185293
0.0185152
0.0185009
0.0184864
0.0184718
0.0184571
0.0184423
0.0184274
0.0184124
0.0183975
0.0183824
0.0183674
0.0183523
0.0183372
0.0183221
0.0183069
0.0182917
0.0182765
0.0182613
0.0182462
0.0182311
0.0182161
0.0182014
0.0181868
0.0181726
0.0181584
0.0181447
0.0181309
0.0181176
0.018104
0.018091
0.0180772
0.0180637
0.0180492
0.0180353
0.0180202
0.0180053
0.017989
0.0179732
0.0179564
0.0179393
0.017921
0.0179025
0.0178833
0.0178641
0.0178451
0.0178261
0.0178081
0.0177912
0.0177737
0.0177564
0.0177386
0.0177207
0.017704
0.0176874
0.0176713
0.0176554
0.0176396
0.0176241
0.0176091
0.0175935
0.017579
0.0175643
0.0175508
0.0175374
0.017525
0.0175125
0.0175006
0.0174885
0.0174767
0.017464
0.0174519
0.0174393
0.0174274
0.0174151
0.0174034
0.0173909
0.0173796
0.0173677
0.0173567
0.0173447
0.0173332
0.017321
0.0173099
0.0172979
0.0172871
0.0172764
0.0172667
0.0172557
0.0172445
0.0172323
0.0172234
0.0172129
0.0172031
0.0171933
0.0171835
0.0171731
0.0171638
0.0171545
0.0171461
0.0171365
0.0171281
0.0171206
0.017114
0.0171074
0.0171006
0.0170939
0.017087
0.017081
0.0170755
0.0170704
0.0170652
0.0170605
0.0170559
0.0170515
0.0170475
0.017044
0.0170409
0.0170384
0.0170363
0.0170347
0.0170338
0.0170327
0.0170321
0.0170307
0.0170295
0.0170268
0.0170245
0.0170186
0.00384401
0.00388399
0.00384174
0.00374988
0.00368661
0.00363991
0.00365565
0.00373528
0.00391525
0.00425471
0.00472744
0.0053623
0.00612737
0.0069979
0.00791544
0.00885359
0.00976598
0.0106368
0.0114428
0.0121889
0.0128635
0.0134751
0.0140242
0.0145183
0.0149617
0.0153583
0.0157132
0.0160326
0.0163179
0.0165755
0.016805
0.0170119
0.0171976
0.017365
0.0175151
0.0176511
0.0177726
0.0178826
0.017981
0.0180703
0.0181501
0.0182222
0.0182871
0.018345
0.0183974
0.0184441
0.018486
0.0185233
0.0185564
0.0185861
0.0186121
0.0186352
0.0186551
0.0186726
0.0186878
0.0187007
0.0187116
0.0187208
0.0187282
0.0187341
0.0187385
0.0187416
0.0187435
0.0187442
0.0187438
0.0187427
0.0187406
0.0187377
0.018734
0.0187297
0.0187247
0.0187192
0.0187131
0.0187065
0.0186995
0.0186921
0.0186843
0.0186761
0.0186676
0.0186589
0.0186499
0.0186406
0.0186312
0.0186215
0.0186115
0.0186014
0.0185911
0.0185806
0.0185699
0.0185591
0.0185481
0.0185371
0.018526
0.0185151
0.0185041
0.0184934
0.0184827
0.0184723
0.0184619
0.0184519
0.0184416
0.0184317
0.0184212
0.0184108
0.0183994
0.0183885
0.0183763
0.0183643
0.0183507
0.0183375
0.018323
0.0183083
0.018292
0.0182755
0.0182579
0.0182403
0.0182227
0.0182048
0.018188
0.0181721
0.0181556
0.0181394
0.0181223
0.0181052
0.0180893
0.0180733
0.0180579
0.0180428
0.0180275
0.0180127
0.0179983
0.0179834
0.0179695
0.0179554
0.0179426
0.0179298
0.0179181
0.0179062
0.017895
0.0178835
0.0178724
0.0178603
0.0178489
0.0178368
0.0178256
0.017814
0.0178029
0.017791
0.0177803
0.0177687
0.0177582
0.0177467
0.0177358
0.0177238
0.017713
0.0177015
0.0176911
0.0176806
0.0176712
0.0176602
0.0176494
0.0176375
0.0176288
0.0176182
0.0176085
0.017599
0.0175893
0.0175788
0.0175695
0.0175603
0.017552
0.0175422
0.0175341
0.0175269
0.0175204
0.017514
0.0175071
0.0175004
0.0174934
0.0174875
0.0174821
0.0174769
0.0174716
0.0174671
0.0174626
0.0174582
0.0174542
0.0174509
0.0174479
0.0174456
0.0174437
0.0174424
0.0174417
0.0174412
0.0174411
0.0174406
0.01744
0.0174381
0.0174363
0.0174313
0.00383058
0.00390649
0.00388325
0.00382036
0.00374803
0.00367334
0.00362243
0.00359141
0.00360447
0.00366411
0.00380032
0.0040475
0.00439845
0.00487561
0.00546167
0.00615088
0.00690931
0.00771339
0.00852551
0.00932893
0.0100993
0.0108288
0.0115088
0.0121383
0.0127175
0.0132476
0.0137305
0.0141719
0.0145722
0.0149383
0.0152697
0.0155716
0.0158461
0.0160963
0.0163239
0.0165322
0.0167209
0.0168939
0.0170512
0.0171956
0.017327
0.0174476
0.0175582
0.0176587
0.0177512
0.0178358
0.0179133
0.0179842
0.0180491
0.0181088
0.0181631
0.018213
0.0182585
0.0183
0.0183381
0.0183728
0.0184044
0.0184332
0.0184594
0.0184831
0.0185046
0.0185239
0.0185413
0.018557
0.0185709
0.0185834
0.0185944
0.0186041
0.0186125
0.0186197
0.0186259
0.0186311
0.0186353
0.0186386
0.0186412
0.0186429
0.018644
0.0186443
0.0186441
0.0186433
0.018642
0.0186401
0.0186378
0.018635
0.0186318
0.0186281
0.018624
0.0186196
0.0186147
0.0186095
0.018604
0.0185982
0.0185921
0.0185861
0.0185799
0.0185737
0.0185675
0.0185615
0.0185553
0.0185495
0.0185433
0.0185376
0.0185311
0.0185247
0.0185172
0.01851
0.0185015
0.018493
0.0184828
0.0184729
0.0184614
0.0184497
0.0184361
0.0184222
0.0184068
0.0183913
0.0183756
0.0183593
0.018344
0.0183294
0.0183144
0.0182997
0.0182836
0.0182678
0.0182529
0.0182379
0.0182235
0.0182093
0.0181949
0.0181811
0.0181676
0.0181535
0.0181406
0.0181273
0.0181154
0.0181036
0.0180927
0.0180815
0.0180713
0.0180608
0.0180506
0.0180394
0.0180289
0.0180176
0.0180073
0.0179966
0.0179865
0.0179754
0.0179654
0.0179544
0.0179446
0.017934
0.0179239
0.0179122
0.017902
0.0178911
0.0178813
0.0178713
0.0178623
0.0178516
0.0178413
0.01783
0.0178217
0.0178111
0.0178017
0.0177926
0.0177833
0.0177727
0.0177635
0.0177545
0.0177463
0.0177365
0.0177289
0.017722
0.0177158
0.0177096
0.0177028
0.0176961
0.0176889
0.0176834
0.0176781
0.0176729
0.0176674
0.0176634
0.0176589
0.0176544
0.0176506
0.0176473
0.0176444
0.0176423
0.0176406
0.0176396
0.0176391
0.0176389
0.0176396
0.0176397
0.0176401
0.017639
0.0176377
0.0176342
0.00381067
0.00390555
0.00389799
0.00386148
0.00380192
0.0037332
0.0036692
0.0036086
0.00356654
0.00353703
0.00354422
0.00358248
0.00367374
0.00384682
0.00409415
0.00443554
0.00486838
0.00539242
0.00599036
0.00664769
0.00733947
0.00804678
0.00874967
0.0094349
0.0100921
0.0107162
0.0113013
0.0118491
0.0123566
0.0128286
0.0132636
0.0136654
0.0140353
0.0143765
0.0146902
0.0149802
0.0152461
0.0154919
0.0157178
0.0159268
0.0161192
0.0162972
0.0164619
0.0166134
0.0167541
0.0168841
0.0170046
0.0171161
0.0172196
0.0173156
0.0174045
0.017487
0.0175636
0.0176347
0.0177008
0.0177622
0.0178192
0.0178723
0.0179216
0.0179673
0.0180098
0.0180494
0.0180861
0.0181202
0.0181518
0.0181812
0.0182085
0.0182337
0.0182571
0.0182787
0.0182986
0.0183171
0.0183341
0.0183497
0.018364
0.0183771
0.0183892
0.0184001
0.01841
0.0184191
0.0184272
0.0184345
0.018441
0.0184468
0.0184518
0.0184561
0.0184597
0.0184627
0.018465
0.0184668
0.018468
0.0184686
0.0184689
0.0184689
0.0184685
0.018468
0.0184674
0.0184667
0.0184658
0.0184651
0.018464
0.0184632
0.0184616
0.01846
0.0184571
0.0184545
0.0184504
0.0184462
0.0184401
0.0184342
0.0184264
0.0184183
0.0184081
0.0183974
0.0183847
0.0183721
0.0183587
0.0183444
0.0183312
0.0183183
0.0183051
0.0182923
0.0182777
0.0182634
0.01825
0.0182361
0.0182231
0.0182101
0.0181969
0.0181843
0.0181719
0.0181591
0.0181472
0.0181349
0.0181243
0.0181137
0.0181039
0.0180936
0.0180847
0.0180752
0.0180662
0.0180561
0.0180466
0.0180363
0.0180274
0.0180177
0.0180088
0.0179989
0.0179899
0.0179796
0.0179709
0.0179614
0.0179521
0.017941
0.0179318
0.0179217
0.0179127
0.0179033
0.017895
0.0178846
0.0178752
0.0178647
0.0178568
0.0178463
0.0178376
0.0178291
0.0178201
0.0178096
0.0178006
0.0177919
0.017784
0.0177742
0.0177673
0.0177608
0.0177549
0.017749
0.0177423
0.0177356
0.0177285
0.0177236
0.0177186
0.0177132
0.0177077
0.0177043
0.0176998
0.0176951
0.0176914
0.0176881
0.0176853
0.0176833
0.0176818
0.0176811
0.0176807
0.0176807
0.0176819
0.0176826
0.0176844
0.0176838
0.0176832
0.0176817
0.00379118
0.00388824
0.00389569
0.00387647
0.00383421
0.00377761
0.00372037
0.0036588
0.00360391
0.00355038
0.00351392
0.00348275
0.00348297
0.00350328
0.00355781
0.00366932
0.00383655
0.00407006
0.00437575
0.00475567
0.0052047
0.0057158
0.00627469
0.00686718
0.00747677
0.00809218
0.00869867
0.00929082
0.00985913
0.0104028
0.0109172
0.0114024
0.0118574
0.0122839
0.0126817
0.0130539
0.0133996
0.0137221
0.0140218
0.0143012
0.0145609
0.0148029
0.0150286
0.0152381
0.0154339
0.0156161
0.0157865
0.0159451
0.0160935
0.0162322
0.0163615
0.0164827
0.016596
0.016702
0.0168014
0.0168945
0.0169818
0.0170638
0.0171406
0.0172127
0.0172804
0.017344
0.0174038
0.01746
0.0175127
0.0175624
0.0176091
0.017653
0.0176943
0.0177332
0.0177697
0.0178041
0.0178364
0.0178668
0.0178953
0.0179221
0.0179474
0.0179711
0.0179933
0.0180141
0.0180337
0.018052
0.0180692
0.0180853
0.0181003
0.0181142
0.0181272
0.0181392
0.0181502
0.0181604
0.0181697
0.0181783
0.0181861
0.0181935
0.0182003
0.0182067
0.0182127
0.0182185
0.0182239
0.0182294
0.0182343
0.0182394
0.0182436
0.0182478
0.0182504
0.0182532
0.0182543
0.0182554
0.0182541
0.0182529
0.0182495
0.0182458
0.0182396
0.018233
0.0182237
0.0182145
0.0182042
0.0181924
0.0181817
0.018171
0.0181601
0.0181496
0.0181369
0.0181247
0.0181131
0.0181007
0.0180893
0.0180778
0.018066
0.0180549
0.0180439
0.0180325
0.0180221
0.018011
0.018002
0.0179927
0.0179841
0.0179751
0.0179676
0.0179595
0.0179518
0.0179429
0.0179347
0.0179258
0.0179184
0.01791
0.0179026
0.017894
0.0178862
0.017877
0.0178697
0.0178614
0.0178532
0.0178428
0.0178349
0.0178259
0.0178179
0.0178093
0.0178018
0.0177919
0.0177838
0.0177744
0.017767
0.0177567
0.017749
0.0177412
0.0177327
0.0177221
0.0177137
0.0177055
0.0176977
0.017688
0.0176822
0.0176761
0.0176707
0.0176651
0.0176584
0.017652
0.0176451
0.0176411
0.0176364
0.0176309
0.0176254
0.017623
0.0176185
0.0176134
0.0176101
0.0176066
0.0176036
0.0176017
0.0176005
0.0176001
0.0175994
0.0175998
0.0176008
0.0176021
0.0176053
0.0176054
0.0176056
0.0176063
0.00377572
0.0038595
0.00388214
0.00387264
0.00384672
0.00380346
0.00375606
0.00370202
0.00365014
0.00359466
0.00354629
0.00349824
0.00346293
0.00343528
0.003422
0.00343073
0.00345976
0.0035239
0.0036313
0.00378316
0.00398774
0.00425039
0.0045703
0.00494695
0.00537297
0.00584279
0.006343
0.00686583
0.00739793
0.00793255
0.00846048
0.00897686
0.00947599
0.00995631
0.0104143
0.010851
0.0112641
0.011655
0.0120232
0.0123703
0.0126967
0.0130034
0.0132921
0.0135626
0.013817
0.0140557
0.0142802
0.0144908
0.014689
0.0148753
0.0150503
0.0152149
0.01537
0.0155158
0.0156534
0.0157829
0.015905
0.0160204
0.0161291
0.0162319
0.0163288
0.0164206
0.0165072
0.0165892
0.0166668
0.0167402
0.0168098
0.0168756
0.016938
0.0169971
0.0170531
0.0171063
0.0171567
0.0172045
0.0172498
0.0172928
0.0173337
0.0173724
0.0174091
0.017444
0.0174771
0.0175085
0.0175383
0.0175666
0.0175934
0.0176188
0.0176428
0.0176655
0.0176868
0.017707
0.017726
0.017744
0.0177609
0.017777
0.0177922
0.0178068
0.0178207
0.0178343
0.0178472
0.0178599
0.017872
0.017884
0.017895
0.0179058
0.0179149
0.017924
0.0179312
0.0179382
0.0179427
0.017947
0.0179489
0.0179507
0.017949
0.0179473
0.017942
0.0179371
0.0179307
0.0179222
0.0179147
0.0179065
0.0178985
0.0178907
0.0178804
0.017871
0.0178614
0.0178508
0.0178416
0.0178318
0.0178217
0.0178126
0.0178033
0.0177935
0.0177848
0.0177753
0.0177684
0.0177605
0.0177533
0.0177458
0.0177401
0.0177334
0.0177272
0.0177198
0.0177132
0.0177059
0.0177003
0.0176935
0.0176877
0.0176806
0.0176743
0.0176666
0.0176612
0.0176541
0.0176471
0.0176378
0.0176317
0.0176238
0.0176172
0.0176095
0.0176029
0.0175939
0.0175875
0.0175794
0.0175724
0.0175626
0.0175564
0.0175494
0.0175413
0.0175309
0.0175233
0.0175157
0.0175079
0.0174986
0.0174942
0.0174884
0.0174836
0.0174782
0.0174718
0.0174656
0.0174593
0.0174567
0.0174522
0.0174465
0.0174418
0.0174408
0.0174359
0.0174304
0.0174276
0.0174237
0.0174204
0.0174185
0.0174174
0.0174172
0.0174163
0.0174168
0.0174174
0.017419
0.0174229
0.0174241
0.0174252
0.0174284
0.00376521
0.00382737
0.00385897
0.00385674
0.00384319
0.00381331
0.00377567
0.00373068
0.00368523
0.00363541
0.00358785
0.00353898
0.00349336
0.00345225
0.00341582
0.00338958
0.00336807
0.00336759
0.00337899
0.00340957
0.00347195
0.0035666
0.00369584
0.00386776
0.00408341
0.00434591
0.00465238
0.00500236
0.0053885
0.00580604
0.00624621
0.00670264
0.00716652
0.00763285
0.00809465
0.00854915
0.00899149
0.00942023
0.00983283
0.0102287
0.0106073
0.0109679
0.0113117
0.0116377
0.0119473
0.0122405
0.0125187
0.0127816
0.0130308
0.0132666
0.0134896
0.0137007
0.0139005
0.0140896
0.0142687
0.0144383
0.014599
0.0147515
0.0148958
0.0150329
0.0151628
0.0152863
0.0154034
0.0155147
0.0156205
0.0157211
0.0158168
0.0159078
0.0159944
0.0160768
0.0161553
0.0162301
0.0163014
0.0163693
0.0164341
0.0164958
0.0165548
0.016611
0.0166646
0.0167157
0.0167646
0.0168112
0.0168557
0.0168982
0.0169388
0.0169775
0.0170144
0.0170496
0.0170831
0.017115
0.0171453
0.0171742
0.0172017
0.0172281
0.0172532
0.0172775
0.0173007
0.0173233
0.017345
0.0173662
0.0173865
0.0174066
0.0174255
0.017444
0.0174607
0.017477
0.0174914
0.0175053
0.0175164
0.0175272
0.0175351
0.0175429
0.017547
0.0175518
0.0175509
0.0175517
0.0175494
0.0175451
0.0175414
0.0175364
0.0175319
0.0175276
0.0175204
0.0175143
0.017507
0.0174989
0.0174923
0.0174844
0.0174765
0.0174698
0.0174623
0.0174546
0.017448
0.0174403
0.0174359
0.0174297
0.017424
0.0174183
0.0174148
0.0174096
0.0174052
0.0173996
0.0173946
0.0173893
0.017386
0.0173808
0.017377
0.0173716
0.0173669
0.0173611
0.017358
0.0173524
0.0173466
0.017339
0.017335
0.0173285
0.0173233
0.0173167
0.0173111
0.0173034
0.0172994
0.0172926
0.0172861
0.0172772
0.0172731
0.0172668
0.0172591
0.0172489
0.0172428
0.0172358
0.017228
0.0172193
0.017217
0.0172112
0.017207
0.0172018
0.0171956
0.0171898
0.0171848
0.0171846
0.0171795
0.0171737
0.0171713
0.0171706
0.0171654
0.0171598
0.017158
0.0171533
0.0171494
0.0171474
0.0171465
0.0171459
0.0171456
0.0171451
0.0171458
0.017147
0.0171512
0.0171535
0.0171556
0.0171615
0.00375869
0.00379754
0.00382985
0.00383368
0.00382764
0.00380976
0.00378129
0.00374522
0.00370687
0.0036642
0.00362112
0.00357654
0.00353168
0.00348907
0.00344608
0.00340879
0.00337326
0.00334539
0.00332452
0.00330956
0.00331136
0.00332338
0.00335166
0.0034057
0.00348331
0.0035888
0.0037259
0.0038985
0.00410616
0.00435071
0.0046299
0.00494237
0.00528285
0.00564776
0.00603069
0.00642723
0.00683122
0.00723855
0.00764466
0.00804604
0.00844051
0.00882488
0.00919876
0.00955986
0.00990832
0.010243
0.0105643
0.0108717
0.0111659
0.0114468
0.0117149
0.0119705
0.0122142
0.0124464
0.0126676
0.0128783
0.013079
0.0132703
0.0134524
0.0136261
0.0137914
0.0139492
0.0140995
0.0142429
0.0143797
0.0145102
0.0146349
0.0147538
0.0148674
0.0149759
0.0150797
0.0151788
0.0152737
0.0153643
0.0154511
0.0155341
0.0156136
0.0156896
0.0157624
0.0158322
0.015899
0.015963
0.0160244
0.0160832
0.0161396
0.0161936
0.0162454
0.0162949
0.0163423
0.0163877
0.0164311
0.0164727
0.0165125
0.0165507
0.0165873
0.0166227
0.0166567
0.0166898
0.0167216
0.0167527
0.0167825
0.0168119
0.0168398
0.0168672
0.0168926
0.0169173
0.0169398
0.0169618
0.0169807
0.0169989
0.0170139
0.0170286
0.0170396
0.0170502
0.017056
0.0170622
0.0170665
0.0170685
0.0170691
0.0170675
0.0170676
0.0170668
0.0170633
0.0170616
0.0170569
0.0170519
0.0170484
0.0170428
0.0170376
0.0170338
0.0170286
0.0170232
0.0170191
0.0170139
0.017013
0.0170077
0.0170038
0.0170003
0.017
0.0169957
0.0169934
0.0169896
0.0169869
0.0169841
0.0169835
0.0169797
0.0169783
0.0169744
0.0169719
0.0169688
0.0169688
0.0169641
0.0169595
0.0169543
0.0169539
0.0169479
0.0169444
0.016939
0.0169347
0.0169291
0.0169287
0.0169222
0.0169162
0.0169091
0.0169084
0.0169019
0.0168943
0.016885
0.0168809
0.0168744
0.0168666
0.0168592
0.0168589
0.016853
0.0168497
0.0168444
0.0168387
0.0168338
0.0168305
0.0168316
0.0168264
0.0168213
0.0168211
0.0168212
0.0168156
0.0168122
0.016811
0.0168047
0.0167999
0.0167979
0.0167967
0.0167965
0.0167953
0.0167956
0.0167951
0.0167965
0.0167994
0.0168026
0.0168056
0.0168143
0.00375413
0.00377374
0.0037992
0.00380681
0.00380455
0.00379519
0.0037756
0.0037475
0.00371606
0.00368047
0.00364299
0.00360385
0.00356302
0.00352294
0.00348155
0.00344247
0.00340355
0.00336712
0.00333512
0.00330543
0.00328196
0.00326447
0.00325281
0.00325454
0.00326444
0.00328734
0.00332966
0.00339084
0.00347209
0.00357826
0.00371055
0.00387119
0.0040601
0.00427815
0.00452379
0.00479558
0.00509032
0.00540485
0.00573548
0.00607782
0.00642893
0.00678405
0.00714111
0.00749629
0.00784805
0.00819376
0.00853251
0.00886253
0.00918339
0.00949416
0.00979471
0.0100845
0.0103638
0.0106324
0.0108905
0.0111383
0.011376
0.0116042
0.0118227
0.0120322
0.0122329
0.0124252
0.0126094
0.0127858
0.0129548
0.0131168
0.013272
0.0134206
0.0135631
0.0136997
0.0138307
0.0139563
0.0140768
0.0141924
0.0143033
0.0144097
0.0145119
0.01461
0.0147041
0.0147946
0.0148815
0.014965
0.0150453
0.0151224
0.0151966
0.0152678
0.0153363
0.0154021
0.0154652
0.0155259
0.0155842
0.0156402
0.0156939
0.0157457
0.0157954
0.0158435
0.0158898
0.0159349
0.0159782
0.0160206
0.0160614
0.0161013
0.0161396
0.016177
0.0162124
0.0162466
0.0162785
0.0163096
0.0163375
0.0163642
0.0163875
0.0164102
0.016429
0.0164468
0.0164601
0.0164729
0.0164837
0.016491
0.0164976
0.0165019
0.0165061
0.0165111
0.0165129
0.0165168
0.0165156
0.0165151
0.016515
0.016511
0.0165105
0.01651
0.0165061
0.016505
0.0165038
0.0165019
0.0165019
0.0164984
0.0164985
0.0164965
0.0164988
0.0164972
0.0164974
0.016495
0.0164955
0.0164954
0.0164962
0.0164958
0.0164962
0.016494
0.0164953
0.0164947
0.0164962
0.0164933
0.0164907
0.0164888
0.0164908
0.0164865
0.0164859
0.0164811
0.0164784
0.0164772
0.0164774
0.0164724
0.0164676
0.0164652
0.0164648
0.0164588
0.0164523
0.0164447
0.0164446
0.0164373
0.0164294
0.0164252
0.0164244
0.0164193
0.016418
0.0164117
0.0164065
0.0164043
0.0164015
0.0164033
0.0163982
0.0163964
0.0163948
0.0163983
0.0163927
0.0163913
0.0163913
0.0163838
0.0163782
0.016376
0.0163747
0.0163762
0.016374
0.0163723
0.0163739
0.0163738
0.0163746
0.0163777
0.0163815
0.016393
0.00375061
0.00375654
0.00377091
0.0037785
0.00377798
0.00377303
0.00376074
0.00373981
0.00371456
0.00368544
0.00365369
0.00362004
0.00358419
0.00354805
0.0035104
0.00347317
0.00343585
0.00339878
0.00336376
0.00332936
0.00329757
0.00326952
0.00324372
0.00322299
0.00320774
0.00319647
0.00319694
0.00320337
0.00321916
0.00325014
0.00329507
0.00335572
0.00343398
0.00353248
0.00365229
0.00379446
0.00395958
0.0041476
0.00435828
0.00458968
0.00484087
0.00510852
0.00539102
0.00568472
0.00598755
0.00629616
0.00660856
0.00692191
0.00723465
0.00754463
0.00785075
0.00815153
0.00844623
0.00873392
0.00901414
0.00928653
0.00955065
0.00980666
0.0100542
0.0102935
0.0105245
0.0107474
0.0109622
0.0111693
0.0113688
0.0115608
0.0117458
0.0119239
0.0120953
0.0122602
0.012419
0.0125718
0.0127189
0.0128604
0.0129967
0.0131279
0.0132542
0.0133758
0.0134929
0.0136056
0.0137143
0.0138189
0.0139197
0.0140169
0.0141105
0.0142007
0.0142876
0.0143713
0.0144519
0.0145296
0.0146043