/*--------------------------------*- C++ -*----------------------------------*\
  =========                 |
  \\      /  F ield         | OpenFOAM: The Open Source CFD Toolbox
   \\    /   O peration     | Website:  https://openfoam.org
    \\  /    A nd           | Version:  12
     \\/     M anipulation  |
\*---------------------------------------------------------------------------*/
FoamFile
{
    format      ascii;
    class       volScalarField;
    location    "300";
    object      p;
}
// * * * * * * * * * * * * * * * * * * * * * * * * * * * * * * * * * * * * * //

dimensions      [0 2 -2 0 0 0 0];

internalField   nonuniform List<scalar> 
20000
(
0.256501
0.135234
0.108927
0.107051
0.104692
0.102674
0.101318
0.100148
0.0990963
0.0980661
0.0970728
0.0961302
0.0952217
0.0943587
0.0935336
0.0927355
0.0919566
0.0911817
0.0904214
0.0896834
0.0889511
0.0882258
0.0875125
0.0868079
0.0861137
0.0854215
0.0847384
0.084058
0.083386
0.082715
0.0820526
0.0813916
0.0807361
0.0800836
0.0794345
0.0787893
0.0781493
0.0775111
0.0768765
0.0762448
0.0756153
0.0749906
0.0743669
0.0737479
0.0731296
0.0725154
0.0719025
0.0712938
0.0706858
0.0700821
0.0694794
0.06888
0.0682824
0.0676876
0.0670947
0.0665045
0.0659161
0.0653297
0.0647461
0.064164
0.0635844
0.0630066
0.0624308
0.0618571
0.0612848
0.0607151
0.0601469
0.0595811
0.0590166
0.0584543
0.0578936
0.0573346
0.0567775
0.0562222
0.0556686
0.0551167
0.0545666
0.0540181
0.0534714
0.052926
0.0523827
0.0518407
0.0513007
0.0507618
0.050225
0.0496894
0.0491557
0.0486233
0.0480929
0.0475639
0.047037
0.0465114
0.0459882
0.0454663
0.0449465
0.0444279
0.0439113
0.0433959
0.0428818
0.0423686
0.0418565
0.041345
0.0408342
0.040324
0.0398145
0.0393058
0.0387977
0.038291
0.0377857
0.0372822
0.0367805
0.0362809
0.0357847
0.0352917
0.0348017
0.0343146
0.0338322
0.0333539
0.0328784
0.0324083
0.0319415
0.0314797
0.0310214
0.0305658
0.030114
0.0296657
0.0292194
0.0287766
0.0283355
0.0278974
0.0274615
0.0270273
0.0265951
0.0261657
0.0257374
0.0253118
0.0248877
0.0244663
0.0240455
0.0236268
0.0232092
0.0227936
0.0223786
0.0219648
0.021552
0.0211406
0.0207299
0.0203195
0.0199104
0.0195023
0.0190947
0.018688
0.0182824
0.0178777
0.0174732
0.0170694
0.0166663
0.0162645
0.0158636
0.0154635
0.0150635
0.014664
0.0142659
0.0138688
0.013471
0.0130748
0.012679
0.0122822
0.0118856
0.0114915
0.0110977
0.010705
0.010311
0.00991959
0.00952956
0.00914105
0.0087526
0.00836633
0.00797861
0.00759312
0.00720988
0.00682848
0.00644898
0.0060704
0.00569735
0.0053247
0.00495622
0.00458908
0.0042237
0.00385799
0.0034969
0.00313446
0.00278032
0.00242064
0.00207038
0.00170801
0.00136076
0.00097775
0.000632683
0.000203188
0.220086
0.133239
0.109598
0.107505
0.104957
0.102854
0.101458
0.100262
0.0991911
0.0981459
0.0971415
0.0961899
0.0952736
0.0944052
0.093575
0.0927728
0.0919903
0.0912124
0.0904495
0.0897093
0.088975
0.0882479
0.0875332
0.0868272
0.0861317
0.0854384
0.0847544
0.0840731
0.0834003
0.0827285
0.0820654
0.0814038
0.0807477
0.0800947
0.0794451
0.0787994
0.078159
0.0775204
0.0768854
0.0762534
0.0756236
0.0749986
0.0743747
0.0737554
0.0731368
0.0725224
0.0719092
0.0713003
0.0706921
0.0700882
0.0694854
0.0688858
0.068288
0.067693
0.0671
0.0665096
0.0659211
0.0653346
0.0647508
0.0641687
0.063589
0.063011
0.0624351
0.0618612
0.0612889
0.0607191
0.0601508
0.0595849
0.0590203
0.058458
0.0578971
0.0573381
0.0567809
0.0562255
0.0556719
0.0551199
0.0545698
0.0540212
0.0534744
0.0529289
0.0523856
0.0518435
0.0513034
0.0507645
0.0502277
0.0496921
0.0491583
0.0486259
0.0480954
0.0475664
0.0470394
0.0465138
0.0459904
0.0454686
0.0449487
0.0444301
0.0439134
0.043398
0.0428838
0.0423706
0.0418585
0.041347
0.0408362
0.040326
0.0398165
0.0393077
0.0387997
0.038293
0.0377876
0.0372842
0.0367825
0.0362828
0.0357867
0.0352936
0.0348036
0.0343164
0.033834
0.0333556
0.0328801
0.03241
0.0319431
0.0314812
0.0310229
0.0305673
0.0301154
0.0296671
0.0292208
0.0287779
0.0283368
0.0278987
0.0274627
0.0270285
0.0265963
0.0261668
0.0257385
0.0253129
0.0248888
0.0244674
0.0240466
0.0236279
0.0232102
0.0227946
0.0223796
0.0219658
0.021553
0.0211416
0.0207309
0.0203204
0.0199113
0.0195031
0.0190956
0.0186889
0.0182832
0.0178785
0.017474
0.0170702
0.0166671
0.0162652
0.0158643
0.0154642
0.0150643
0.0146647
0.0142666
0.0138694
0.0134717
0.0130754
0.0126796
0.0122828
0.0118863
0.0114921
0.0110982
0.0107056
0.0103116
0.00992017
0.00953013
0.0091416
0.00875313
0.00836684
0.00797912
0.00759363
0.00721037
0.00682896
0.00644945
0.00607086
0.00569779
0.00532513
0.00495663
0.00458947
0.00422411
0.0038584
0.0034973
0.00313485
0.0027807
0.00242104
0.00207076
0.00170839
0.00136106
0.000977851
0.000632378
0.00020293
0.204592
0.135327
0.111177
0.108216
0.105392
0.103173
0.101716
0.100475
0.0993687
0.0982962
0.0972723
0.096305
0.0953744
0.0944973
0.0936578
0.0928475
0.0920579
0.0912742
0.0905064
0.0897617
0.0890233
0.0882927
0.0875749
0.0868662
0.0861681
0.0854725
0.0847865
0.0841033
0.0834288
0.0827555
0.082091
0.0814281
0.0807708
0.0801166
0.079466
0.0788195
0.0781782
0.0775388
0.076903
0.0762702
0.0756398
0.0750142
0.0743897
0.0737698
0.0731507
0.0725358
0.0719222
0.0713129
0.0707043
0.0701
0.0694967
0.0688968
0.0682987
0.0677034
0.0671101
0.0665194
0.0659306
0.0653438
0.0647598
0.0641774
0.0635975
0.0630193
0.0624432
0.0618691
0.0612966
0.0607266
0.0601581
0.059592
0.0590273
0.0584648
0.0579038
0.0573446
0.0567872
0.0562317
0.0556779
0.0551258
0.0545756
0.0540269
0.05348
0.0529343
0.0523909
0.0518487
0.0513086
0.0507695
0.0502326
0.0496969
0.049163
0.0486305
0.0480999
0.0475708
0.0470437
0.046518
0.0459946
0.0454726
0.0449527
0.044434
0.0439173
0.0434018
0.0428876
0.0423743
0.0418621
0.0413506
0.0408398
0.0403295
0.0398201
0.0393113
0.0388032
0.0382965
0.0377911
0.0372877
0.0367859
0.0362862
0.03579
0.0352969
0.0348068
0.0343195
0.033837
0.0333585
0.0328829
0.0324128
0.0319458
0.0314838
0.0310254
0.0305697
0.0301178
0.0296694
0.029223
0.0287801
0.028339
0.0279008
0.0274647
0.0270305
0.0265983
0.0261688
0.0257404
0.0253148
0.0248907
0.0244692
0.0240483
0.0236296
0.0232119
0.0227962
0.0223812
0.0219674
0.0215545
0.0211431
0.0207324
0.0203219
0.0199128
0.0195046
0.019097
0.0186903
0.0182846
0.0178799
0.0174753
0.0170715
0.0166684
0.0162665
0.0158656
0.0154654
0.0150654
0.0146659
0.0142678
0.0138705
0.0134728
0.0130765
0.0126807
0.0122838
0.0118873
0.0114931
0.0110992
0.0107065
0.0103126
0.00992116
0.0095311
0.00914253
0.00875403
0.00836771
0.00797999
0.00759448
0.00721121
0.00682976
0.00645023
0.00607162
0.00569854
0.00532585
0.00495734
0.00459017
0.00422485
0.00385913
0.00349801
0.00313555
0.00278141
0.00242176
0.00207146
0.0017091
0.0013617
0.00097806
0.000632362
0.000202494
0.199077
0.136431
0.113094
0.108929
0.105853
0.103525
0.102004
0.100717
0.0995766
0.0984774
0.097435
0.0964516
0.0955067
0.09462
0.0937695
0.0929491
0.0921507
0.0913598
0.0905857
0.0898351
0.0890912
0.0883561
0.0876342
0.0869219
0.0862202
0.0855214
0.0848326
0.0841469
0.08347
0.0827945
0.082128
0.0814632
0.0808043
0.0801485
0.0794964
0.0788486
0.078206
0.0775654
0.0769285
0.0762947
0.0756633
0.0750368
0.0744114
0.0737908
0.0731709
0.0725553
0.071941
0.0713311
0.0707219
0.070117
0.0695132
0.0689128
0.0683142
0.0677184
0.0671247
0.0665335
0.0659444
0.0653572
0.0647728
0.06419
0.0636098
0.0630313
0.0624549
0.0618805
0.0613077
0.0607374
0.0601687
0.0596023
0.0590373
0.0584746
0.0579133
0.0573539
0.0567964
0.0562407
0.0556867
0.0551344
0.0545839
0.054035
0.053488
0.0529422
0.0523986
0.0518562
0.0513159
0.0507767
0.0502396
0.0497038
0.0491698
0.0486371
0.0481064
0.0475772
0.0470499
0.0465241
0.0460006
0.0454785
0.0449584
0.0444396
0.0439228
0.0434072
0.0428929
0.0423796
0.0418673
0.0413558
0.0408449
0.0403346
0.0398251
0.0393163
0.0388082
0.0383014
0.0377959
0.0372924
0.0367906
0.0362908
0.0357944
0.0353012
0.034811
0.0343237
0.033841
0.0333624
0.0328868
0.0324164
0.0319494
0.0314872
0.0310287
0.030573
0.0301209
0.0296725
0.029226
0.028783
0.0283418
0.0279036
0.0274675
0.0270332
0.026601
0.0261713
0.0257429
0.0253173
0.0248931
0.0244715
0.0240506
0.0236319
0.0232141
0.0227984
0.0223833
0.0219695
0.0215566
0.0211452
0.0207344
0.020324
0.0199148
0.0195065
0.0190988
0.0186921
0.0182864
0.0178816
0.017477
0.0170732
0.0166701
0.0162682
0.0158672
0.0154669
0.0150669
0.0146675
0.0142693
0.013872
0.0134743
0.0130779
0.0126821
0.0122852
0.0118886
0.0114944
0.0111005
0.0107078
0.0103139
0.00992246
0.00953238
0.00914378
0.00875523
0.00836886
0.00798112
0.0075956
0.00721232
0.00683082
0.00645124
0.00607262
0.00569953
0.0053268
0.0049583
0.00459113
0.00422587
0.00386013
0.00349898
0.00313651
0.00278241
0.00242276
0.00207249
0.00171016
0.00136278
0.000978504
0.000633303
0.000202059
0.193094
0.135908
0.114875
0.109826
0.10629
0.103831
0.102244
0.10092
0.099761
0.0986489
0.0975968
0.0966021
0.0956464
0.0947507
0.0938901
0.0930602
0.0922535
0.0914558
0.0906756
0.0899191
0.0891694
0.0884297
0.0877035
0.0869875
0.0862817
0.0855793
0.0848874
0.0841988
0.0835192
0.0828413
0.0821724
0.0815055
0.0808446
0.0801869
0.0795331
0.0788838
0.0782397
0.0775976
0.0769595
0.0763244
0.0756919
0.0750643
0.0744379
0.0738163
0.0731955
0.072579
0.071964
0.0713532
0.0707433
0.0701377
0.0695333
0.0689322
0.068333
0.0677367
0.0671424
0.0665508
0.0659611
0.0653735
0.0647886
0.0642054
0.0636247
0.0630458
0.0624691
0.0618943
0.0613212
0.0607506
0.0601815
0.0596148
0.0590495
0.0584865
0.057925
0.0573653
0.0568075
0.0562515
0.0556973
0.0551447
0.0545941
0.0540449
0.0534977
0.0529516
0.0524079
0.0518653
0.0513248
0.0507854
0.0502482
0.0497121
0.049178
0.0486451
0.0481142
0.0475848
0.0470574
0.0465315
0.0460078
0.0454855
0.0449654
0.0444464
0.0439295
0.0434137
0.0428994
0.042386
0.0418736
0.041362
0.0408511
0.0403407
0.0398311
0.0393222
0.038814
0.0383071
0.0378016
0.037298
0.036796
0.0362961
0.0357995
0.0353062
0.0348158
0.0343284
0.0338455
0.0333669
0.0328911
0.0324206
0.0319533
0.031491
0.0310323
0.0305766
0.0301245
0.0296759
0.0292294
0.0287863
0.028345
0.0279067
0.0274705
0.0270362
0.0266039
0.0261742
0.0257458
0.0253201
0.0248959
0.0244742
0.0240533
0.0236345
0.0232166
0.0228008
0.0223857
0.0219718
0.0215589
0.0211475
0.0207367
0.0203262
0.019917
0.0195087
0.019101
0.0186942
0.0182884
0.0178836
0.017479
0.0170752
0.016672
0.0162701
0.015869
0.0154686
0.0150686
0.0146692
0.0142711
0.0138736
0.0134758
0.0130795
0.0126837
0.0122867
0.0118902
0.0114959
0.0111019
0.0107091
0.0103153
0.00992391
0.00953382
0.0091452
0.00875657
0.00837015
0.00798237
0.00759684
0.00721356
0.00683199
0.00645233
0.00607369
0.00570063
0.00532784
0.00495937
0.00459225
0.00422703
0.00386126
0.00350007
0.00313762
0.00278357
0.00242393
0.00207374
0.00171148
0.00136415
0.000979301
0.000635785
0.000201576
0.186617
0.135272
0.116038
0.110869
0.106784
0.104125
0.102452
0.101081
0.0999037
0.0987856
0.0977338
0.0967355
0.0957757
0.0948749
0.0940068
0.0931705
0.0923581
0.0915544
0.0907694
0.0900078
0.0892528
0.0885089
0.0877787
0.0870592
0.0863491
0.0856432
0.0849483
0.0842566
0.0835744
0.0828937
0.0822224
0.0815533
0.0808904
0.0802306
0.0795748
0.0789239
0.0782782
0.0776345
0.076995
0.0763585
0.0757247
0.0750959
0.0744684
0.0738458
0.0732238
0.0726064
0.0719904
0.0713788
0.0707681
0.0701617
0.0695565
0.0689547
0.0683548
0.0677579
0.067163
0.0665707
0.0659805
0.0653923
0.0648069
0.0642233
0.0636421
0.0630627
0.0624855
0.0619103
0.0613368
0.0607658
0.0601964
0.0596293
0.0590637
0.0585004
0.0579385
0.0573785
0.0568203
0.0562641
0.0557096
0.0551568
0.0546058
0.0540565
0.0535089
0.0529627
0.0524186
0.0518758
0.0513351
0.0507955
0.0502581
0.0497218
0.0491874
0.0486544
0.0481233
0.0475937
0.0470661
0.04654
0.0460162
0.0454937
0.0449734
0.0444543
0.0439372
0.0434214
0.0429069
0.0423934
0.0418809
0.0413692
0.0408581
0.0403477
0.039838
0.039329
0.0388207
0.0383136
0.037808
0.0373042
0.0368021
0.0363019
0.0358052
0.0353117
0.0348211
0.0343335
0.0338505
0.0333717
0.0328958
0.0324251
0.0319577
0.0314952
0.0310364
0.0305805
0.0301283
0.0296797
0.029233
0.0287899
0.0283485
0.0279101
0.0274738
0.0270395
0.0266071
0.0261774
0.0257489
0.0253232
0.024899
0.0244772
0.0240562
0.0236373
0.0232194
0.0228035
0.0223883
0.0219744
0.0215615
0.02115
0.0207392
0.0203287
0.0199195
0.019511
0.0191033
0.0186965
0.0182906
0.0178857
0.0174811
0.0170773
0.0166741
0.0162722
0.015871
0.0154704
0.0150703
0.0146711
0.014273
0.0138754
0.0134776
0.0130813
0.0126854
0.0122884
0.0118918
0.0114976
0.0111035
0.0107106
0.0103169
0.00992547
0.00953538
0.00914674
0.00875804
0.00837153
0.00798369
0.00759815
0.00721488
0.00683323
0.00645347
0.00607481
0.0057018
0.00532895
0.00496051
0.00459348
0.0042283
0.00386249
0.00350123
0.00313884
0.00278488
0.00242526
0.00207519
0.00171303
0.00136568
0.000981403
0.000639055
0.000201013
0.180626
0.135141
0.11676
0.111542
0.107329
0.104492
0.102675
0.101235
0.100024
0.0988885
0.0978339
0.0968344
0.0958778
0.0949798
0.0941096
0.0932717
0.0924573
0.0916496
0.0908613
0.0900964
0.0893371
0.0885895
0.0878561
0.0871335
0.0864194
0.0857103
0.0850128
0.0843184
0.0836338
0.0829502
0.0822764
0.0816053
0.0809404
0.0802785
0.0796208
0.0789682
0.0783207
0.0776754
0.0770345
0.0763964
0.0757613
0.0751312
0.0745024
0.0738787
0.0732556
0.072637
0.0720201
0.0714076
0.0707959
0.0701888
0.0695827
0.06898
0.0683795
0.0677819
0.0671862
0.0665934
0.0660025
0.0654137
0.0648278
0.0642435
0.0636618
0.0630819
0.0625043
0.0619286
0.0613546
0.0607832
0.0602133
0.0596459
0.0590798
0.0585161
0.0579538
0.0573935
0.056835
0.0562785
0.0557236
0.0551705
0.0546192
0.0540696
0.0535218
0.0529752
0.0524309
0.0518879
0.0513469
0.0508071
0.0502694
0.0497329
0.0491983
0.048665
0.0481337
0.0476039
0.0470761
0.0465498
0.0460257
0.0455031
0.0449826
0.0444633
0.0439461
0.0434301
0.0429155
0.0424018
0.0418892
0.0413773
0.0408662
0.0403556
0.0398458
0.0393366
0.0388281
0.0383209
0.0378151
0.0373111
0.0368088
0.0363084
0.0358115
0.0353177
0.034827
0.0343391
0.033856
0.033377
0.0329009
0.0324301
0.0319624
0.0314997
0.0310407
0.0305848
0.0301325
0.0296837
0.029237
0.0287938
0.0283523
0.0279138
0.0274774
0.027043
0.0266106
0.0261808
0.0257523
0.0253266
0.0249023
0.0244804
0.0240593
0.0236404
0.0232224
0.0228064
0.0223912
0.0219772
0.0215642
0.0211527
0.0207419
0.0203314
0.0199221
0.0195136
0.0191058
0.018699
0.0182931
0.0178881
0.0174834
0.0170796
0.0166764
0.0162744
0.0158731
0.0154724
0.0150723
0.0146732
0.014275
0.0138772
0.0134794
0.0130832
0.0126873
0.0122902
0.0118935
0.0114993
0.0111051
0.0107122
0.0103185
0.00992714
0.00953706
0.00914839
0.0087596
0.00837299
0.00798507
0.00759954
0.00721628
0.00683452
0.00645464
0.00607598
0.00570303
0.00533009
0.00496172
0.00459482
0.00422965
0.00386378
0.00350245
0.00314013
0.0027863
0.00242673
0.00207684
0.00171483
0.00136758
0.00098525
0.000642362
0.00020054
0.175196
0.134868
0.117586
0.111989
0.107722
0.104938
0.102953
0.101406
0.100151
0.0989869
0.0979198
0.0969095
0.0959511
0.095056
0.0941864
0.0933516
0.0925405
0.0917326
0.0909444
0.0901789
0.0894172
0.0886672
0.0879316
0.0872071
0.0864899
0.0857781
0.0850784
0.0843819
0.0836952
0.083009
0.0823329
0.08166
0.0809932
0.0803293
0.0796697
0.0790153
0.0783662
0.0777193
0.077077
0.0764373
0.0758008
0.0751696
0.0745395
0.0739146
0.0732903
0.0726706
0.0720528
0.0714392
0.0708266
0.0702186
0.0696115
0.069008
0.0684067
0.0678084
0.067212
0.0666184
0.0660268
0.0654374
0.0648509
0.064266
0.0636838
0.0631033
0.0625251
0.0619489
0.0613744
0.0608026
0.0602322
0.0596643
0.0590979
0.0585337
0.0579711
0.0574103
0.0568515
0.0562946
0.0557393
0.0551859
0.0546343
0.0540843
0.0535362
0.0529893
0.0524447
0.0519014
0.0513601
0.05082
0.0502821
0.0497453
0.0492104
0.0486769
0.0481453
0.0476153
0.0470873
0.0465607
0.0460364
0.0455136
0.0449929
0.0444735
0.0439561
0.0434399
0.0429251
0.0424113
0.0418986
0.0413865
0.0408752
0.0403644
0.0398545
0.0393451
0.0388364
0.038329
0.037823
0.0373188
0.0368162
0.0363156
0.0358183
0.0353243
0.0348333
0.0343452
0.0338619
0.0333827
0.0329065
0.0324354
0.0319675
0.0315046
0.0310454
0.0305894
0.030137
0.0296881
0.0292413
0.0287979
0.0283563
0.0279177
0.0274813
0.0270468
0.0266143
0.0261845
0.025756
0.0253302
0.0249058
0.0244838
0.0240627
0.0236437
0.0232256
0.0228096
0.0223943
0.0219802
0.0215672
0.0211557
0.0207448
0.0203344
0.019925
0.0195163
0.0191085
0.0187017
0.0182957
0.0178906
0.0174859
0.017082
0.0166789
0.0162769
0.0158755
0.0154746
0.0150744
0.0146754
0.0142773
0.0138793
0.0134815
0.0130853
0.0126893
0.012292
0.0118954
0.0115012
0.0111069
0.0107138
0.0103203
0.00992893
0.00953884
0.00915015
0.00876125
0.00837453
0.00798651
0.007601
0.00721777
0.00683586
0.00645584
0.00607719
0.00570433
0.00533126
0.00496298
0.00459626
0.00423109
0.00386516
0.00350371
0.00314149
0.00278782
0.00242834
0.00207869
0.00171688
0.0013699
0.000989927
0.000646538
0.000200145
0.170104
0.134503
0.118293
0.112535
0.10802
0.105246
0.10327
0.101618
0.100293
0.099094
0.0980118
0.096984
0.096017
0.0951176
0.0942421
0.0934078
0.0926002
0.0917943
0.0910098
0.0902476
0.0894866
0.0887366
0.0880009
0.0872762
0.086557
0.0858434
0.0851423
0.0844442
0.083756
0.0830677
0.0823899
0.0817154
0.0810471
0.0803814
0.0797202
0.0790642
0.0784136
0.0777653
0.0771217
0.0764804
0.0758427
0.0752103
0.0745788
0.0739528
0.0733273
0.0727066
0.0720877
0.0714732
0.0708596
0.0702507
0.0696427
0.0690384
0.0684362
0.0678372
0.06724
0.0666457
0.0660534
0.0654633
0.0648761
0.0642906
0.0637078
0.0631267
0.062548
0.0619712
0.0613962
0.0608238
0.060253
0.0596847
0.0591177
0.0585532
0.05799
0.0574288
0.0568696
0.0563123
0.0557567
0.0552029
0.0546509
0.0541006
0.0535521
0.0530049
0.05246
0.0519164
0.0513748
0.0508344
0.0502962
0.0497591
0.049224
0.0486901
0.0481583
0.047628
0.0470997
0.0465729
0.0460484
0.0455254
0.0450044
0.0444848
0.0439672
0.0434508
0.0429358
0.0424218
0.041909
0.0413967
0.0408852
0.0403742
0.0398641
0.0393545
0.0388456
0.0383379
0.0378316
0.0373271
0.0368243
0.0363233
0.0358258
0.0353315
0.0348402
0.0343518
0.0338683
0.0333888
0.0329124
0.0324412
0.031973
0.0315099
0.0310504
0.0305943
0.0301419
0.0296927
0.0292458
0.0288024
0.0283606
0.027922
0.0274854
0.0270508
0.0266183
0.0261884
0.0257599
0.0253341
0.0249097
0.0244875
0.0240663
0.0236473
0.0232291
0.022813
0.0223976
0.0219834
0.0215705
0.021159
0.020748
0.0203375
0.0199281
0.0195193
0.0191114
0.0187047
0.0182985
0.0178933
0.0174886
0.0170847
0.0166815
0.0162795
0.015878
0.0154769
0.0150767
0.0146779
0.0142797
0.0138814
0.0134837
0.0130876
0.0126915
0.012294
0.0118973
0.0115033
0.0111088
0.0107156
0.0103222
0.00993084
0.00954075
0.00915202
0.00876298
0.00837614
0.00798801
0.00760256
0.00721932
0.00683723
0.00645707
0.00607846
0.00570564
0.00533243
0.00496427
0.00459777
0.00423257
0.00386657
0.00350498
0.00314289
0.00278939
0.00243009
0.00208072
0.00171922
0.00137265
0.000995365
0.000651787
0.000199795
0.165273
0.13408
0.118857
0.113032
0.108412
0.105479
0.103489
0.101839
0.100471
0.099218
0.0981117
0.0970644
0.0960883
0.0951817
0.0942954
0.0934566
0.0926472
0.0918385
0.0910559
0.0902972
0.0895382
0.0887908
0.0880578
0.0873355
0.0866162
0.0859025
0.0852013
0.0845027
0.0838139
0.0831241
0.0824451
0.0817696
0.0811003
0.0804331
0.0797704
0.0791134
0.0784615
0.0778119
0.0771673
0.0765245
0.0758858
0.0752523
0.0746195
0.0739926
0.073366
0.0727442
0.0721244
0.0715089
0.0708945
0.0702847
0.0696757
0.0690705
0.0684676
0.0678678
0.0672698
0.0666749
0.0660818
0.065491
0.0649031
0.0643171
0.0637336
0.0631519
0.0625727
0.0619953
0.0614197
0.0608469
0.0602755
0.0597067
0.0591393
0.0585743
0.0580107
0.057449
0.0568893
0.0563317
0.0557757
0.0552215
0.0546691
0.0541184
0.0535696
0.053022
0.0524768
0.0519328
0.0513909
0.0508502
0.0503116
0.0497742
0.0492388
0.0487047
0.0481725
0.0476419
0.0471134
0.0465863
0.0460616
0.0455383
0.0450171
0.0444972
0.0439794
0.0434628
0.0429476
0.0424335
0.0419204
0.0414079
0.0408962
0.040385
0.0398746
0.0393648
0.0388556
0.0383476
0.037841
0.0373363
0.0368331
0.0363318
0.0358339
0.0353393
0.0348477
0.034359
0.0338752
0.0333955
0.0329189
0.0324474
0.031979
0.0315156
0.0310559
0.0305997
0.0301471
0.0296977
0.0292507
0.0288072
0.0283652
0.0279265
0.0274899
0.0270551
0.0266226
0.0261925
0.0257641
0.0253383
0.0249137
0.0244915
0.0240702
0.0236512
0.0232328
0.0228166
0.0224011
0.0219869
0.021574
0.0211624
0.0207515
0.0203409
0.0199314
0.0195225
0.0191146
0.0187079
0.0183016
0.0178962
0.0174915
0.0170877
0.0166844
0.0162824
0.0158807
0.0154793
0.0150792
0.0146806
0.0142823
0.0138837
0.0134861
0.0130901
0.0126939
0.0122961
0.0118994
0.0115054
0.0111108
0.0107174
0.0103243
0.00993287
0.00954276
0.00915399
0.00876479
0.0083778
0.0079896
0.00760422
0.00722094
0.00683862
0.00645836
0.0060798
0.00570698
0.00533359
0.0049656
0.00459934
0.0042341
0.00386805
0.00350626
0.00314432
0.00279099
0.00243192
0.00208291
0.00172186
0.00137584
0.00100159
0.000658056
0.000199493
0.1607
0.133568
0.119298
0.11346
0.108784
0.105786
0.103661
0.102018
0.100618
0.0993564
0.0982274
0.097153
0.0961632
0.0952507
0.0943528
0.0935089
0.0926954
0.0918802
0.0910957
0.0903363
0.089576
0.0888291
0.0880987
0.0873798
0.0866619
0.0859501
0.0852508
0.0845536
0.0838655
0.0831753
0.0824962
0.0818204
0.0811509
0.0804825
0.0798188
0.0791612
0.0785085
0.0778579
0.0772125
0.0765684
0.0759289
0.0752946
0.0746608
0.0740331
0.0734054
0.0727827
0.0721621
0.0715458
0.0709305
0.0703199
0.0697099
0.069104
0.0685004
0.0678999
0.0673011
0.0667056
0.0661117
0.0655201
0.0649317
0.0643451
0.063761
0.0631787
0.0625989
0.0620209
0.0614447
0.0608714
0.0602996
0.0597303
0.0591623
0.0585969
0.0580328
0.0574707
0.0569106
0.0563525
0.0557961
0.0552415
0.0546887
0.0541377
0.0535884
0.0530405
0.0524949
0.0519506
0.0514083
0.0508673
0.0503284
0.0497906
0.0492549
0.0487205
0.048188
0.0476571
0.0471283
0.0466009
0.0460759
0.0455523
0.0450309
0.0445108
0.0439928
0.0434759
0.0429605
0.0424461
0.0419329
0.0414202
0.0409082
0.0403967
0.0398861
0.0393759
0.0388665
0.0383582
0.0378513
0.0373462
0.0368426
0.036341
0.0358427
0.0353478
0.0348558
0.0343668
0.0338826
0.0334027
0.0329259
0.0324541
0.0319855
0.0315217
0.0310617
0.0306055
0.0301527
0.0297031
0.029256
0.0288123
0.0283702
0.0279313
0.0274946
0.0270598
0.0266271
0.026197
0.0257686
0.0253427
0.024918
0.0244957
0.0240744
0.0236553
0.0232368
0.0228205
0.0224049
0.0219907
0.0215778
0.0211662
0.0207552
0.0203446
0.0199349
0.0195259
0.0191181
0.0187113
0.0183048
0.0178994
0.0174947
0.0170909
0.0166876
0.0162855
0.0158835
0.015482
0.015082
0.0146836
0.0142851
0.0138862
0.0134887
0.0130928
0.0126963
0.0122983
0.0119017
0.0115078
0.0111128
0.0107195
0.0103265
0.00993502
0.00954491
0.00915607
0.00876667
0.00837954
0.00799135
0.00760604
0.0072226
0.00684002
0.00645975
0.0060812
0.00570826
0.00533468
0.00496692
0.00460092
0.00423562
0.00386953
0.00350749
0.00314573
0.00279258
0.00243376
0.00208519
0.00172482
0.00137949
0.00100862
0.000665356
0.000199292
0.156389
0.13294
0.119621
0.113823
0.109124
0.10608
0.103886
0.102193
0.100722
0.0994812
0.0983199
0.0972501
0.0962488
0.0953266
0.0944129
0.0935634
0.0927476
0.091925
0.0911377
0.0903766
0.0896122
0.0888626
0.0881317
0.0874136
0.0866951
0.0859843
0.0852872
0.0845924
0.0839065
0.0832172
0.0825395
0.0818647
0.0811961
0.0805275
0.0798634
0.0792059
0.0785528
0.0779017
0.077256
0.0766109
0.0759708
0.075336
0.0747014
0.0740732
0.0734445
0.0728211
0.0721999
0.0715829
0.0709669
0.0703556
0.0697448
0.0691382
0.068534
0.0679328
0.0673334
0.0667373
0.0661427
0.0655504
0.0649614
0.0643742
0.0637896
0.0632067
0.0626264
0.0620478
0.0614711
0.0608973
0.0603249
0.0597551
0.0591867
0.0586208
0.0580563
0.0574936
0.0569331
0.0563747
0.0558178
0.0552628
0.0547097
0.0541582
0.0536086
0.0530602
0.0525143
0.0519696
0.051427
0.0508856
0.0503464
0.0498083
0.0492723
0.0487375
0.0482047
0.0476735
0.0471444
0.0466167
0.0460914
0.0455676
0.0450459
0.0445255
0.0440073
0.0434901
0.0429745
0.0424599
0.0419463
0.0414334
0.0409212
0.0404094
0.0398985
0.039388
0.0388783
0.0383696
0.0378624
0.037357
0.036853
0.036351
0.0358524
0.035357
0.0348646
0.0343754
0.0338907
0.0334105
0.0329334
0.0324614
0.0319926
0.0315284
0.0310681
0.0306118
0.0301587
0.0297088
0.0292616
0.0288177
0.0283754
0.0279365
0.0274996
0.0270647
0.0266319
0.0262018
0.0257734
0.0253474
0.0249226
0.0245002
0.0240789
0.0236596
0.0232411
0.0228246
0.022409
0.0219948
0.0215818
0.0211702
0.0207592
0.0203485
0.0199387
0.0195297
0.0191218
0.018715
0.0183083
0.0179028
0.0174983
0.0170943
0.0166909
0.0162888
0.0158866
0.015485
0.0150852
0.0146867
0.014288
0.013889
0.0134917
0.0130958
0.0126989
0.0123007
0.0119042
0.0115102
0.011115
0.0107218
0.010329
0.00993725
0.00954716
0.00915824
0.00876863
0.00838142
0.00799335
0.00760805
0.00722424
0.00684147
0.00646133
0.00608268
0.00570946
0.00533577
0.00496825
0.00460248
0.00423714
0.00387103
0.00350865
0.00314713
0.00279415
0.00243555
0.00208746
0.00172806
0.00138354
0.00101637
0.000673669
0.00019924
0.152338
0.132194
0.119828
0.11412
0.109434
0.106353
0.104107
0.102363
0.10086
0.099595
0.0983916
0.0973409
0.0963383
0.0953854
0.0944829
0.0936236
0.0928025
0.0919713
0.091181
0.0904197
0.0896509
0.0888975
0.0881655
0.0874471
0.0867252
0.086013
0.0853158
0.0846217
0.0839369
0.0832478
0.0825719
0.081899
0.0812324
0.0805646
0.0799011
0.0792448
0.0785923
0.0779413
0.077296
0.0766502
0.0760101
0.0753752
0.0747402
0.0741117
0.0734822
0.0728583
0.0722368
0.0716193
0.0710027
0.0703911
0.0697794
0.0691723
0.0685676
0.0679659
0.0673659
0.0667694
0.0661741
0.0655812
0.0649917
0.064404
0.0638189
0.0632354
0.0626548
0.0620755
0.0614983
0.0609241
0.0603512
0.059781
0.0592121
0.0586458
0.0580808
0.0575177
0.0569567
0.0563979
0.0558406
0.0552853
0.0547317
0.0541799
0.0536299
0.0530811
0.0525348
0.0519898
0.0514469
0.0509051
0.0503656
0.0498271
0.0492908
0.0487556
0.0482225
0.047691
0.0471616
0.0466337
0.0461081
0.0455839
0.045062
0.0445413
0.0440228
0.0435053
0.0429895
0.0424746
0.0419608
0.0414476
0.0409351
0.040423
0.0399118
0.039401
0.038891
0.0383819
0.0378744
0.0373685
0.0368643
0.0363619
0.0358628
0.0353669
0.0348743
0.0343847
0.0338995
0.0334189
0.0329416
0.0324693
0.0320003
0.0315356
0.0310751
0.0306186
0.030165
0.029715
0.0292677
0.0288235
0.0283811
0.0279421
0.0275049
0.02707
0.0266371
0.0262071
0.0257786
0.0253523
0.0249275
0.0245052
0.0240837
0.0236642
0.0232456
0.022829
0.0224134
0.0219992
0.0215862
0.0211744
0.0207634
0.0203527
0.0199428
0.0195338
0.0191259
0.0187189
0.018312
0.0179067
0.0175021
0.0170979
0.0166945
0.0162923
0.0158899
0.0154885
0.0150887
0.01469
0.0142911
0.0138921
0.013495
0.0130988
0.0127015
0.0123032
0.0119069
0.0115128
0.0111173
0.0107245
0.0103317
0.00993956
0.00954956
0.00916049
0.0087707
0.00838357
0.00799573
0.00761019
0.00722583
0.00684308
0.00646314
0.00608412
0.00571056
0.00533693
0.00496955
0.00460384
0.00423859
0.00387244
0.00350964
0.00314847
0.00279567
0.00243721
0.00208961
0.00173149
0.00138794
0.00102482
0.000683019
0.000199411
0.148541
0.131338
0.119919
0.114348
0.10971
0.106606
0.104316
0.102529
0.100999
0.0997055
0.098492
0.0974249
0.0964129
0.0954349
0.0945541
0.0936864
0.092843
0.0920242
0.0912295
0.0904651
0.0896911
0.0889331
0.0882005
0.0874828
0.0867567
0.0860423
0.0853443
0.0846497
0.083964
0.0832732
0.0825973
0.0819251
0.0812598
0.0805923
0.0799295
0.079275
0.0786239
0.077974
0.07733
0.0766841
0.0760448
0.0754103
0.0747755
0.0741473
0.0735174
0.0728932
0.0722717
0.071654
0.071037
0.0704253
0.069813
0.0692055
0.0686005
0.0679984
0.0673979
0.0668011
0.0662052
0.0656119
0.065022
0.0644339
0.0638484
0.0632644
0.0626835
0.0621036
0.061526
0.0609514
0.0603781
0.0598075
0.0592382
0.0586715
0.058106
0.0575425
0.0569812
0.056422
0.0558643
0.0553087
0.0547546
0.0542025
0.0536521
0.0531029
0.0525563
0.052011
0.0514677
0.0509256
0.0503858
0.0498469
0.0493103
0.0487748
0.0482413
0.0477096
0.0471799
0.0466516
0.0461257
0.0456013
0.0450791
0.0445581
0.0440393
0.0435215
0.0430054
0.0424903
0.0419762
0.0414627
0.04095
0.0404376
0.0399261
0.0394149
0.0389046
0.0383951
0.0378872
0.0373809
0.0368763
0.0363735
0.0358741
0.0353778
0.0348848
0.034395
0.0339091
0.0334282
0.0329505
0.0324779
0.0320088
0.0315436
0.0310828
0.0306259
0.0301719
0.0297219
0.0292741
0.0288296
0.0283874
0.027948
0.0275106
0.0270757
0.0266427
0.0262128
0.0257841
0.0253575
0.0249328
0.0245105
0.0240887
0.023669
0.0232503
0.0228337
0.0224181
0.022004
0.0215908
0.021179
0.0207678
0.0203571
0.0199474
0.0195384
0.0191302
0.0187228
0.0183161
0.017911
0.0175062
0.0171019
0.0166984
0.0162959
0.0158936
0.0154924
0.0150925
0.0146934
0.0142945
0.0138958
0.0134986
0.0131019
0.0127043
0.0123062
0.0119099
0.0115153
0.0111198
0.0107276
0.0103345
0.00994209
0.0095521
0.00916272
0.00877293
0.00838613
0.00799844
0.00761235
0.00722752
0.00684494
0.00646517
0.00608555
0.00571171
0.00533834
0.00497077
0.00460497
0.00423996
0.00387374
0.0035105
0.00314983
0.00279713
0.00243875
0.00209153
0.00173492
0.00139252
0.00103384
0.00069331
0.000199825
0.144993
0.130387
0.119899
0.114506
0.109949
0.106837
0.104512
0.102689
0.101134
0.0998162
0.098593
0.0975082
0.0964863
0.0955066
0.094614
0.0937408
0.0928796
0.0920786
0.0912805
0.0904981
0.0897309
0.0889763
0.0882389
0.0875202
0.0867896
0.0860723
0.0853735
0.0846787
0.0839925
0.0832987
0.0826221
0.0819496
0.0812843
0.0806154
0.079952
0.0792984
0.0786479
0.0779987
0.0773561
0.0767103
0.0760724
0.075439
0.0748051
0.0741778
0.073548
0.0729242
0.0723032
0.0716856
0.0710687
0.0704572
0.0698444
0.0692368
0.0686317
0.0680296
0.0674287
0.0668319
0.0662355
0.0656417
0.0650517
0.0644633
0.0638775
0.0632931
0.062712
0.0621316
0.0615536
0.0609788
0.0604051
0.0598342
0.0592645
0.0586976
0.0581317
0.0575677
0.0570061
0.0564466
0.0558886
0.0553326
0.0547782
0.0542258
0.053675
0.0531254
0.0525785
0.0520329
0.0514893
0.0509469
0.0504067
0.0498676
0.0493307
0.0487948
0.048261
0.047729
0.047199
0.0466705
0.0461443
0.0456195
0.0450971
0.0445758
0.0440568
0.0435386
0.0430223
0.0425068
0.0419925
0.0414787
0.0409657
0.040453
0.0399412
0.0394297
0.0389191
0.0384092
0.0379009
0.0373942
0.0368893
0.0363861
0.0358863
0.0353895
0.0348961
0.0344059
0.0339195
0.0334382
0.0329602
0.0324873
0.032018
0.0315525
0.0310912
0.0306337
0.0301793
0.0297293
0.029281
0.0288363
0.0283941
0.0279544
0.0275166
0.0270818
0.0266488
0.0262188
0.0257899
0.025363