/*--------------------------------*- C++ -*----------------------------------*\
  =========                 |
  \\      /  F ield         | OpenFOAM: The Open Source CFD Toolbox
   \\    /   O peration     | Website:  https://openfoam.org
    \\  /    A nd           | Version:  12
     \\/     M anipulation  |
\*---------------------------------------------------------------------------*/
FoamFile
{
    format      ascii;
    class       surfaceScalarField;
    location    "300";
    object      phi;
}
// * * * * * * * * * * * * * * * * * * * * * * * * * * * * * * * * * * * * * //

dimensions      [0 3 -1 0 0 0 0];

internalField   nonuniform List<scalar> 
39700
(
0.000289048
0.000218414
0.000158806
0.000130242
0.000114182
4.46243e-05
9.67861e-05
1.73951e-05
8.76318e-05
9.15482e-06
8.18549e-05
5.77667e-06
7.80674e-05
3.78743e-06
7.53663e-05
2.70074e-06
7.3314e-05
2.05237e-06
7.16122e-05
1.7017e-06
7.01867e-05
1.42547e-06
6.89809e-05
1.20578e-06
6.79022e-05
1.0786e-06
6.69904e-05
9.11853e-07
6.61938e-05
7.9655e-07
6.54763e-05
7.17558e-07
6.48194e-05
6.56789e-07
6.42119e-05
6.07499e-07
6.36466e-05
5.65358e-07
6.31271e-05
5.19525e-07
6.26367e-05
4.90306e-07
6.21743e-05
4.62413e-07
6.1737e-05
4.37359e-07
6.13257e-05
4.11225e-07
6.09384e-05
3.87309e-07
6.05654e-05
3.7306e-07
6.02111e-05
3.54308e-07
5.98693e-05
3.41755e-07
5.95437e-05
3.25639e-07
5.92299e-05
3.13761e-07
5.89299e-05
2.99984e-07
5.86388e-05
2.9116e-07
5.8359e-05
2.79697e-07
5.80892e-05
2.69854e-07
5.78275e-05
2.61683e-07
5.75745e-05
2.53015e-07
5.73313e-05
2.43162e-07
5.70944e-05
2.36952e-07
5.6865e-05
2.29374e-07
5.66427e-05
2.22242e-07
5.64258e-05
2.16931e-07
5.62162e-05
2.09548e-07
5.60113e-05
2.04902e-07
5.58135e-05
1.9784e-07
5.562e-05
1.9348e-07
5.54318e-05
1.88136e-07
5.52476e-05
1.84172e-07
5.50692e-05
1.78473e-07
5.4894e-05
1.75132e-07
5.47243e-05
1.69742e-07
5.45581e-05
1.66123e-07
5.43961e-05
1.61989e-07
5.42375e-05
1.58673e-07
5.40829e-05
1.54521e-07
5.39318e-05
1.51142e-07
5.37842e-05
1.47528e-07
5.364e-05
1.44249e-07
5.34985e-05
1.41429e-07
5.33605e-05
1.37988e-07
5.32252e-05
1.35302e-07
5.3093e-05
1.32182e-07
5.29634e-05
1.29611e-07
5.28365e-05
1.26836e-07
5.27124e-05
1.24142e-07
5.25904e-05
1.22018e-07
5.24711e-05
1.1925e-07
5.23539e-05
1.17114e-07
5.22394e-05
1.14488e-07
5.21269e-05
1.12502e-07
5.20168e-05
1.1013e-07
5.19086e-05
1.08132e-07
5.18025e-05
1.06101e-07
5.16982e-05
1.04234e-07
5.1596e-05
1.02185e-07
5.14957e-05
1.00318e-07
5.13971e-05
9.8517e-08
5.13005e-05
9.65984e-08
5.12056e-05
9.49307e-08
5.11125e-05
9.30383e-08
5.10208e-05
9.16982e-08
5.09309e-05
8.98182e-08
5.08424e-05
8.85362e-08
5.07556e-05
8.67757e-08
5.06699e-05
8.56513e-08
5.05859e-05
8.39519e-08
5.0503e-05
8.28318e-08
5.04217e-05
8.13163e-08
5.03415e-05
8.01662e-08
5.02628e-05
7.86433e-08
5.01853e-05
7.75237e-08
5.01094e-05
7.58837e-08
5.00347e-05
7.47238e-08
4.99618e-05
7.28546e-08
4.98901e-05
7.16982e-08
4.98201e-05
6.99577e-08
4.97512e-05
6.89245e-08
4.96838e-05
6.7398e-08
4.96174e-05
6.64893e-08
4.95519e-05
6.54759e-08
4.94869e-05
6.49613e-08
4.94224e-05
6.4525e-08
4.93579e-05
6.45019e-08
4.92932e-05
6.46985e-08
4.92281e-05
6.49726e-08
4.91629e-05
6.52338e-08
4.90971e-05
6.57482e-08
4.90306e-05
6.65428e-08
4.89637e-05
6.68521e-08
4.88963e-05
6.72709e-08
4.88286e-05
6.76846e-08
4.87604e-05
6.81966e-08
4.86915e-05
6.90687e-08
4.86228e-05
6.82182e-08
4.85549e-05
6.79534e-08
4.84879e-05
6.67218e-08
4.84216e-05
6.65419e-08
4.83573e-05
6.36315e-08
4.82948e-05
6.24067e-08
4.82334e-05
6.10551e-08
4.8174e-05
5.96368e-08
4.8115e-05
5.85503e-08
4.80577e-05
5.73417e-08
4.80022e-05
5.55089e-08
4.79478e-05
5.48763e-08
4.7895e-05
5.23688e-08
4.78438e-05
5.12423e-08
4.77932e-05
5.05281e-08
4.77442e-05
4.93908e-08
4.76958e-05
4.81956e-08
4.76485e-05
4.75114e-08
4.76021e-05
4.64907e-08
4.75565e-05
4.61119e-08
4.75119e-05
4.42091e-08
4.74686e-05
4.33761e-08
4.7426e-05
4.25688e-08
4.73851e-05
4.12826e-08
4.73451e-05
3.94032e-08
4.73063e-05
3.87802e-08
4.72673e-05
3.87728e-08
4.72291e-05
3.84325e-08
4.71912e-05
3.76667e-08
4.7154e-05
3.72628e-08
4.71172e-05
3.67954e-08
4.70808e-05
3.66715e-08
4.70446e-05
3.61191e-08
4.70089e-05
3.5724e-08
4.69737e-05
3.52502e-08
4.69388e-05
3.49535e-08
4.69055e-05
3.33943e-08
4.68726e-05
3.28702e-08
4.68395e-05
3.32021e-08
4.68063e-05
3.32424e-08
4.67742e-05
3.20359e-08
4.67431e-05
3.11302e-08
4.67116e-05
3.1475e-08
4.66805e-05
3.10804e-08
4.66504e-05
3.01154e-08
4.66213e-05
2.90345e-08
4.65931e-05
2.82506e-08
4.65648e-05
2.83088e-08
4.65355e-05
2.91506e-08
4.65072e-05
2.83377e-08
4.64811e-05
2.60419e-08
4.64552e-05
2.6079e-08
4.64285e-05
2.64639e-08
4.64026e-05
2.5989e-08
4.6378e-05
2.45405e-08
4.63537e-05
2.45765e-08
4.63285e-05
2.47378e-08
4.63051e-05
2.34753e-08
4.62822e-05
2.27695e-08
4.62598e-05
2.27289e-08
4.62364e-05
2.3202e-08
4.62141e-05
2.24479e-08
4.61929e-05
2.13092e-08
4.61731e-05
2.02278e-08
4.61533e-05
1.93973e-08
4.61351e-05
1.8378e-08
4.61156e-05
1.94266e-08
4.60964e-05
1.96169e-08
4.60784e-05
1.75129e-08
4.60612e-05
1.72978e-08
4.60439e-05
1.71456e-08
4.60253e-05
1.90158e-08
4.60096e-05
1.52904e-08
4.59933e-05
1.63974e-08
4.59781e-05
1.51655e-08
4.59644e-05
1.40719e-08
4.59515e-05
1.2359e-08
4.59377e-05
1.38606e-08
4.59249e-05
1.26427e-08
4.59104e-05
1.47264e-08
4.59003e-05
1.01291e-08
4.58861e-05
1.41538e-08
4.58781e-05
8.21994e-09
4.58647e-05
1.31347e-08
4.58664e-05
-6.99673e-10
4.58555e-05
1.0679e-08
4.58946e-05
-3.82846e-08
-3.48903e-09
0.000488264
0.000262027
0.000397813
0.000220693
0.000326641
0.000115797
0.000282375
6.16611e-05
0.000254841
3.6689e-05
0.000236499
2.41185e-05
0.000223531
1.67559e-05
0.000213787
1.24444e-05
0.000206138
9.70211e-06
0.000199861
7.97891e-06
0.000194624
6.66166e-06
0.0001902
5.62977e-06
0.000186359
4.91976e-06
0.000183057
4.21411e-06
0.000180169
3.68473e-06
0.000177593
3.29366e-06
0.00017527
2.97927e-06
0.000173163
2.71489e-06
0.000171234
2.49396e-06
0.000169471
2.28257e-06
0.000167838
2.12383e-06
0.000166322
1.97825e-06
0.000164907
1.85245e-06
0.000163589
1.72894e-06
0.000162357
1.61898e-06
0.000161192
1.53842e-06
0.000160093
1.45323e-06
0.00015905
1.38501e-06
0.000158063
1.31295e-06
0.000157123
1.25301e-06
0.000156229
1.19386e-06
0.000155373
1.14717e-06
0.000154556
1.0967e-06
0.000153775
1.05173e-06
0.000153023
1.01289e-06
0.000152302
9.74294e-07
0.000151611
9.3439e-07
0.000150944
9.04155e-07
0.000150301
8.71685e-07
0.000149682
8.41321e-07
0.000149083
8.16306e-07
0.000148505
7.87522e-07
0.000147945
7.65202e-07
0.000147404
7.38548e-07
0.000146879
7.18099e-07
0.00014637
6.97e-07
0.000145876
6.78792e-07
0.000145397
6.57608e-07
0.00014493
6.4175e-07
0.000144478
6.22041e-07
0.000144037
6.06281e-07
0.000143609
5.90259e-07
0.000143192
5.76243e-07
0.000142786
5.60539e-07
0.00014239
5.46902e-07
0.000142004
5.33042e-07
0.000141628
5.20144e-07
0.000141261
5.0861e-07
0.000140903
4.95943e-07
0.000140553
4.85084e-07
0.000140212
4.73487e-07
0.000139878
4.63323e-07
0.000139552
4.52819e-07
0.000139234
4.42711e-07
0.000138922
4.34024e-07
0.000138617
4.24136e-07
0.000138318
4.15646e-07
0.000138027
4.06279e-07
0.000137741
3.98383e-07
0.000137461
3.89842e-07
0.000137187
3.82157e-07
0.000136918
3.74566e-07
0.000136655
3.67528e-07
0.000136397
3.60068e-07
0.000136144
3.53132e-07
0.000135897
3.46384e-07
0.000135654
3.3951e-07
0.000135415
3.33202e-07
0.000135182
3.26536e-07
0.000134952
3.21088e-07
0.000134728
3.14714e-07
0.000134507
3.09572e-07
0.00013429
3.0355e-07
0.000134076
2.98911e-07
0.000133867
2.93163e-07
0.000133661
2.88658e-07
0.000133459
2.8339e-07
0.000133261
2.78828e-07
0.000133066
2.73634e-07
0.000132874
2.69204e-07
0.000132686
2.63702e-07
0.000132502
2.59091e-07
0.000132322
2.53126e-07
0.000132145
2.48618e-07
0.000131972
2.42985e-07
0.000131802
2.38936e-07
0.000131635
2.3401e-07
0.000131471
2.30627e-07
0.000131309
2.27206e-07
0.000131149
2.25215e-07
0.00013099
2.23532e-07
0.000130831
2.23144e-07
0.000130673
2.23319e-07
0.000130514
2.23805e-07
0.000130355
2.2436e-07
0.000130195
2.25553e-07
0.000130034
2.27308e-07
0.000129873
2.27775e-07
0.000129712
2.28703e-07
0.00012955
2.29352e-07
0.000129388
2.30551e-07
0.000129225
2.31555e-07
0.000129064
2.29266e-07
0.000128905
2.27304e-07
0.000128748
2.23474e-07
0.000128594
2.2106e-07
0.000128444
2.13264e-07
0.000128297
2.08758e-07
0.000128155
2.03682e-07
0.000128016
1.98485e-07
0.00012788
1.94856e-07
0.000127747
1.89895e-07
0.000127619
1.84247e-07
0.000127493
1.81055e-07
0.000127371
1.74306e-07
0.000127252
1.7035e-07
0.000127135
1.67465e-07
0.000127021
1.63548e-07
0.000126909
1.60149e-07
0.0001268
1.57295e-07
0.000126692
1.54076e-07
0.000126587
1.51971e-07
0.000126484
1.47133e-07
0.000126383
1.44203e-07
0.000126284
1.41326e-07
0.000126189
1.37042e-07
0.000126096
1.32135e-07
0.000126005
1.29861e-07
0.000125914
1.29125e-07
0.000125825
1.27541e-07
0.000125737
1.25313e-07
0.000125651
1.23588e-07
0.000125566
1.21908e-07
0.000125482
1.20882e-07
0.000125399
1.19523e-07
0.000125316
1.18168e-07
0.000125235
1.16795e-07
0.000125155
1.15359e-07
0.000125077
1.11036e-07
0.000125001
1.09258e-07
0.000124924
1.0973e-07
0.000124848
1.09309e-07
0.000124775
1.05763e-07
0.000124703
1.03121e-07
0.000124631
1.0364e-07
0.000124559
1.02378e-07
0.00012449
9.95846e-08
0.000124422
9.63551e-08
0.000124357
9.37978e-08
0.000124292
9.33937e-08
0.000124226
9.5515e-08
0.000124161
9.31092e-08
0.0001241
8.6697e-08
0.00012404
8.64786e-08
0.000123979
8.73686e-08
0.000123919
8.55705e-08
0.000123862
8.18314e-08
0.000123805
8.14076e-08
0.000123748
8.15739e-08
0.000123694
7.81808e-08
0.000123641
7.54267e-08
0.000123589
7.53315e-08
0.000123535
7.66748e-08
0.000123483
7.41381e-08
0.000123434
7.10251e-08
0.000123386
6.77264e-08
0.00012334
6.53161e-08
0.000123296
6.26981e-08
0.000123251
6.49403e-08
0.000123206
6.43872e-08
0.000123164
5.96071e-08
0.000123123
5.79936e-08
0.000123082
5.80135e-08
0.000123041
6.08737e-08
0.000123003
5.26627e-08
0.000122966
5.39064e-08
0.00012293
5.09936e-08
0.000122898
4.69569e-08
0.000122865
4.47932e-08
0.000122832
4.70446e-08
0.0001228
4.48877e-08
0.000122768
4.7384e-08
0.000122739
3.84553e-08
0.000122708
4.58292e-08
0.000122682
3.4168e-08
0.000122653
4.25726e-08
0.000122639
1.34549e-08
0.000122624
2.64362e-08
0.000122675
-9.00673e-08
-1.60764e-08
0.000561758
0.000257739
0.000533662
0.000248789
0.00048896
0.000160499
0.00044226
0.00010836
0.000405037
7.39123e-05
0.000376231
5.29244e-05
0.000353831
3.91556e-05
0.000336083
3.0192e-05
0.000321768
2.40172e-05
0.000309974
1.97733e-05
0.000300113
1.65227e-05
0.000291764
1.39787e-05
0.000284585
1.20982e-05
0.000278363
1.04369e-05
0.000272908
9.13877e-06
0.000268063
8.13871e-06
0.000263729
7.31322e-06
0.000259828
6.61654e-06
0.000256285
6.03683e-06
0.00025306
5.50727e-06
0.0002501
5.08405e-06
0.000247375
4.70372e-06
0.00024485
4.37718e-06
0.000242511
4.06791e-06
0.000240335
3.79461e-06
0.000238295
3.57853e-06
0.000236383
3.36551e-06
0.000234581
3.18642e-06
0.000232886
3.00823e-06
0.000231283
2.85599e-06
0.000229764
2.71256e-06
0.000228321
2.59045e-06
0.00022695
2.4676e-06
0.000225645
2.35714e-06
0.000224398
2.25946e-06
0.000223207
2.16597e-06
0.000222068
2.07313e-06
0.000220975
1.99687e-06
0.000219927
1.91939e-06
0.000218922
1.84715e-06
0.000217952
1.78542e-06
0.000217021
1.71938e-06
0.000216122
1.66429e-06
0.000215256
1.60438e-06
0.000214419
1.55464e-06
0.00021361
1.50575e-06
0.000212827
1.46177e-06
0.00021207
1.41451e-06
0.000211336
1.37588e-06
0.000210626
1.33246e-06
0.000209937
1.29543e-06
0.000209268
1.25913e-06
0.000208618
1.22633e-06
0.000207987
1.19148e-06
0.000207373
1.16039e-06
0.000206777
1.12946e-06
0.000206197
1.10033e-06
0.000205631
1.07389e-06
0.000205081
1.04619e-06
0.000204545
1.02153e-06
0.000204022
9.96112e-07
0.000203512
9.73207e-07
0.000203015
9.50098e-07
0.00020253
9.27848e-07
0.000202056
9.08077e-07
0.000201593
8.8685e-07
0.000201141
8.67872e-07
0.000200699
8.47829e-07
0.000200267
8.30177e-07
0.000199845
8.11835e-07
0.000199433
7.94896e-07
0.000199029
7.78338e-07
0.000198633
7.6292e-07
0.000198247
7.46904e-07
0.000197868
7.31873e-07
0.000197497
7.17213e-07
0.000197134
7.02576e-07
0.000196778
6.88857e-07
0.00019643
6.74756e-07
0.000196088
6.62576e-07
0.000195754
6.49325e-07
0.000195425
6.37887e-07
0.000195104
6.25321e-07
0.000194788
6.14872e-07
0.000194478
6.02951e-07
0.000194174
5.92896e-07
0.000193875
5.81838e-07
0.000193582
5.7178e-07
0.000193295
5.6097e-07
0.000193013
5.51247e-07
0.000192736
5.39991e-07
0.000192466
5.29984e-07
0.000192201
5.1815e-07
0.000191941
5.08451e-07
0.000191686
4.97264e-07
0.000191437
4.88513e-07
0.000191192
4.78739e-07
0.000190951
4.71488e-07
0.000190714
4.64476e-07
0.000190479
4.59947e-07
0.000190247
4.56085e-07
0.000190015
4.54532e-07
0.000189785
4.53931e-07
0.000189554
4.53983e-07
0.000189324
4.54311e-07
0.000189094
4.55558e-07
0.000188864
4.57526e-07
0.000188635
4.57344e-07
0.000188405
4.5809e-07
0.000188176
4.58144e-07
0.000187948
4.59062e-07
0.000187721
4.58743e-07
0.000187496
4.53834e-07
0.000187274
4.4879e-07
0.000187057
4.41072e-07
0.000186843
4.34763e-07
0.000186635
4.20674e-07
0.000186432
4.11394e-07
0.000186235
4.0089e-07
0.000186043
3.90145e-07
0.000185856
3.82171e-07
0.000185674
3.71753e-07
0.000185497
3.60948e-07
0.000185324
3.53932e-07
0.000185156
3.4189e-07
0.000184993
3.34075e-07
0.000184832
3.27918e-07
0.000184676
3.20257e-07
0.000184522
3.13759e-07
0.000184372
3.07817e-07
0.000184224
3.01476e-07
0.00018408
2.96781e-07
0.000183938
2.88336e-07
0.0001838
2.82666e-07
0.000183664
2.76914e-07
0.000183532
2.68909e-07
0.000183404
2.60254e-07
0.000183278
2.55627e-07
0.000183154
2.5329e-07
0.000183032
2.49765e-07
0.000182911
2.45345e-07
0.000182793
2.41636e-07
0.000182677
2.38215e-07
0.000182562
2.35773e-07
0.000182449
2.33253e-07
0.000182336
2.30555e-07
0.000182225
2.27928e-07
0.000182116
2.24873e-07
0.000182009
2.17399e-07
0.000181905
2.13924e-07
0.0001818
2.13853e-07
0.000181698
2.12203e-07
0.000181597
2.05863e-07
0.000181499
2.01252e-07
0.000181401
2.01431e-07
0.000181305
1.98962e-07
0.00018121
1.94131e-07
0.000181118
1.88332e-07
0.000181029
1.83389e-07
0.00018094
1.81749e-07
0.000180851
1.84575e-07
0.000180764
1.8056e-07
0.000180681
1.69726e-07
0.000180598
1.68924e-07
0.000180516
1.69926e-07
0.000180435
1.66236e-07
0.000180357
1.59958e-07
0.000180279
1.58938e-07
0.000180202
1.58747e-07
0.000180127
1.53062e-07
0.000180055
1.47668e-07
0.000179983
1.47575e-07
0.00017991
1.49708e-07
0.000179839
1.45133e-07
0.00017977
1.3991e-07
0.000179704
1.33921e-07
0.00017964
1.29238e-07
0.000179578
1.24703e-07
0.000179515
1.27684e-07
0.000179454
1.25954e-07
0.000179395
1.18355e-07
0.000179338
1.1463e-07
0.000179281
1.14588e-07
0.000179225
1.17497e-07
0.000179172
1.04885e-07
0.000179121
1.05406e-07
0.000179071
1.01074e-07
0.000179025
9.342e-08
0.000178977
9.14766e-08
0.000178931
9.37891e-08
0.000178884
9.12663e-08
0.000178839
9.26131e-08
0.000178796
8.07709e-08
0.000178752
9.01705e-08
0.000178712
7.38683e-08
0.000178671
8.39056e-08
0.000178641
4.42158e-08
0.000178617
4.96102e-08
0.000178663
-1.35008e-07
-2.81093e-08
0.000603275
0.000238753
0.000602013
0.000250051
0.000586361
0.00017615
0.000559304
0.000135418
0.000528242
0.000104975
0.000498893
8.22736e-05
0.000472624
6.54247e-05
0.000449712
5.31045e-05
0.000430061
4.36677e-05
0.000413275
3.65601e-05
0.000398904
3.08937e-05
0.000386519
2.63634e-05
0.00037577
2.28467e-05
0.000366359
1.98481e-05
0.000358059
1.74393e-05
0.000350681
1.55169e-05
0.000344091
1.39026e-05
0.000338167
1.2541e-05
0.000332803
1.1401e-05
0.000327929
1.03811e-05
0.000323473
9.53934e-06
0.000319386
8.79145e-06
0.000315614
8.14867e-06
0.000312129
7.55295e-06
0.000308895
7.0286e-06
0.000305877
6.59684e-06
0.000303058
6.18418e-06
0.000300414
5.83081e-06
0.000297933
5.4886e-06
0.000295596
5.19309e-06
0.000293389
4.91994e-06
0.0002913
4.67938e-06
0.000289322
4.44567e-06
0.000287444
4.23487e-06
0.000285658
4.04576e-06
0.000283955
3.86898e-06
0.000282331
3.69707e-06
0.000280778
3.54941e-06
0.000279294
3.40403e-06
0.000277872
3.2688e-06
0.000276506
3.15098e-06
0.000275196
3.02948e-06
0.000273936
2.92468e-06
0.000272724
2.8161e-06
0.000271557
2.72236e-06
0.00027043
2.63182e-06
0.000269343
2.54918e-06
0.000268294
2.46388e-06
0.000267279
2.39106e-06
0.000266298
2.31336e-06
0.000265348
2.24507e-06
0.000264428
2.17909e-06
0.000263536
2.11849e-06
0.000262671
2.05614e-06
0.000261832
1.99967e-06
0.000261017
1.94416e-06
0.000260226
1.89151e-06
0.000259457
1.84336e-06
0.000258709
1.79424e-06
0.00025798
1.74966e-06
0.000257272
1.70459e-06
0.000256582
1.66334e-06
0.00025591
1.62234e-06
0.000255255
1.58282e-06
0.000254616
1.54706e-06
0.000253992
1.5099e-06
0.000253384
1.476e-06
0.000252791
1.44105e-06
0.000252212
1.40953e-06
0.000251646
1.37747e-06
0.000251094
1.34748e-06
0.000250554
1.31832e-06
0.000250025
1.29106e-06
0.000249509
1.26314e-06
0.000249004
1.2368e-06
0.00024851
1.2111e-06
0.000248027
1.18571e-06
0.000247554
1.16168e-06
0.000247092
1.13733e-06
0.000246639
1.11568e-06
0.000246195
1.09299e-06
0.00024576
1.07272e-06
0.000245334
1.05117e-06
0.000244917
1.03251e-06
0.000244507
1.01214e-06
0.000244106
9.94278e-07
0.000243713
9.7527e-07
0.000243327
9.57573e-07
0.000242949
9.39101e-07
0.000242578
9.22065e-07
0.000242215
9.03105e-07
0.000241859
8.85784e-07
0.000241511
8.66282e-07
0.00024117
8.49593e-07
0.000240836
8.31187e-07
0.000240508
8.16064e-07
0.000240187
7.99947e-07
0.000239871
7.87383e-07
0.00023956
7.75479e-07
0.000239253
7.6718e-07
0.000238949
7.59952e-07
0.000238648
7.56146e-07
0.000238348
7.53663e-07
0.00023805
7.52312e-07
0.000237752
7.51516e-07
0.000237456
7.5181e-07
0.000237161
7.5282e-07
0.000236867
7.5088e-07
0.000236575
7.50395e-07
0.000236284
7.48638e-07
0.000235996
7.47867e-07
0.00023571
7.44603e-07
0.000235428
7.35774e-07
0.00023515
7.26203e-07
0.000234878
7.13324e-07
0.000234612
7.01545e-07
0.000234352
6.80057e-07
0.000234099
6.64504e-07
0.000233853
6.46995e-07
0.000233614
6.29022e-07
0.000233381
6.15041e-07
0.000233156
5.97663e-07
0.000232936
5.80539e-07
0.000232722
5.684e-07
0.000232513
5.5028e-07
0.00023231
5.37635e-07
0.000232111
5.2717e-07
0.000231916
5.14797e-07
0.000231726
5.04453e-07
0.000231539
4.94507e-07
0.000231357
4.84165e-07
0.000231178
4.75949e-07
0.000231002
4.63503e-07
0.000230831
4.54441e-07
0.000230663
4.45072e-07
0.000230499
4.32676e-07
0.000230339
4.1995e-07
0.000230183
4.12242e-07
0.000230028
4.07419e-07
0.000229877
4.01166e-07
0.000229728
3.94019e-07
0.000229583
3.87663e-07
0.000229439
3.82016e-07
0.000229297
3.77702e-07
0.000229157
3.73673e-07
0.000229018
3.69173e-07
0.000228881
3.64905e-07
0.000228746
3.59866e-07
0.000228614
3.49159e-07
0.000228485
3.43735e-07
0.000228356
3.42339e-07
0.00022823
3.3855e-07
0.000228107
3.29122e-07
0.000227986
3.22395e-07
0.000227865
3.21625e-07
0.000227747
3.17466e-07
0.00022763
3.10525e-07
0.000227517
3.01901e-07
0.000227406
2.94274e-07
0.000227297
2.90826e-07
0.000227188
2.93586e-07
0.000227081
2.8761e-07
0.000226978
2.72431e-07
0.000226876
2.70902e-07
0.000226775
2.71522e-07
0.000226676
2.65394e-07
0.000226579
2.56491e-07
0.000226483
2.54784e-07
0.000226388
2.53994e-07
0.000226295
2.45776e-07
0.000226205
2.37635e-07
0.000226116
2.3735e-07
0.000226025
2.3984e-07
0.000225938
2.32918e-07
0.000225852
2.25553e-07
0.000225769
2.16739e-07
0.000225689
2.09591e-07
0.000225611
2.02613e-07
0.000225533
2.05814e-07
0.000225457
2.02351e-07
0.000225383
1.91887e-07
0.000225312
1.85506e-07
0.000225242
1.85116e-07
0.000225172
1.8739e-07
0.000225106
1.70602e-07
0.000225042
1.69709e-07
0.000224979
1.64179e-07
0.00022492
1.52585e-07
0.00022486
1.51499e-07
0.000224801
1.53445e-07
0.000224741
1.50987e-07
0.000224684
1.50171e-07
0.000224629
1.35959e-07
0.000224573
1.46219e-07
0.000224521
1.26044e-07
0.000224467
1.37401e-07
0.000224421
9.06289e-08
0.000224387
8.36644e-08
0.000224421
-1.69006e-07
-3.34795e-08
0.000634307
0.000216848
0.000644049
0.000240309
0.000640935
0.000179264
0.000631423
0.00014493
0.000614913
0.000121484
0.000594926
0.00010226
0.000573635
8.67155e-05
0.000552232
7.45078e-05
0.000531718
6.41811e-05
0.000512664
5.56147e-05
0.000495366
4.81913e-05
0.000479819
4.19106e-05
0.000465929
3.67363e-05
0.00045353
3.22475e-05
0.000442435
2.85343e-05
0.000432483
2.54684e-05
0.000423546
2.28393e-05
0.000415476
2.06111e-05
0.00040815
1.8727e-05
0.000401485
1.70462e-05
0.000395393
1.56314e-05
0.000389802
1.43829e-05
0.000384648
1.33021e-05
0.000379887
1.23138e-05
0.000375473
1.1443e-05
0.000371363
1.07072e-05
0.000367531
1.00155e-05
0.000363945
9.41721e-06
0.000360587
8.84658e-06
0.000357429
8.35063e-06
0.000354453
7.89585e-06
0.000351644
7.48872e-06
0.000348989
7.10085e-06
0.000346473
6.7503e-06
0.000344086
6.43298e-06
0.000341815
6.14046e-06
0.000339652
5.85969e-06
0.000337589
5.61209e-06
0.000335621
5.37281e-06
0.000333739
5.15073e-06
0.000331935
4.95477e-06
0.000330207
4.75693e-06
0.000328549
4.58339e-06
0.000326956
4.40874e-06
0.000325424
4.25425e-06
0.00032395
4.10623e-06
0.000322529
3.97041e-06
0.000321159
3.8335e-06
0.000319836
3.71361e-06
0.00031856
3.58967e-06
0.000317326
3.47896e-06
0.000316133
3.37264e-06
0.000314977
3.27409e-06
0.000313858
3.17484e-06
0.000312774
3.08407e-06
0.000311722
2.99554e-06
0.000310703
2.91124e-06
0.000309712
2.83376e-06
0.00030875
2.75606e-06
0.000307815
2.68473e-06
0.000306906
2.61348e-06
0.000306022
2.54765e-06
0.000305162
2.48284e-06
0.000304324
2.42035e-06
0.000303508
2.36317e-06
0.000302713
2.30495e-06
0.000301938
2.2512e-06
0.000301182
2.19663e-06
0.000300445
2.14672e-06
0.000299726
2.09661e-06
0.000299024
2.04939e-06
0.000298339
2.0036e-06
0.000297669
1.96066e-06
0.000297015
1.91715e-06
0.000296376
1.87597e-06
0.000295751
1.83578e-06
0.00029514
1.79636e-06
0.000294543
1.75883e-06
0.000293959
1.72114e-06
0.000293388
1.68705e-06
0.000292829
1.65209e-06
0.000292281
1.62019e-06
0.000291746
1.58697e-06
0.000291221
1.55748e-06
0.000290707
1.52615e-06
0.000290203
1.49802e-06
0.000289709
1.46869e-06
0.000289226
1.44104e-06
0.000288752
1.41267e-06
0.000288288
1.38614e-06
0.000287834
1.35738e-06
0.000287389
1.33072e-06
0.000286954
1.3016e-06
0.000286527
1.27602e-06
0.00028611
1.24861e-06
0.0002857
1.22534e-06
0.000285299
1.20124e-06
0.000284905
1.18177e-06
0.000284517
1.16349e-06
0.000284134
1.14996e-06
0.000283756
1.13794e-06
0.000283382
1.13051e-06
0.00028301
1.12476e-06
0.000282642
1.12074e-06
0.000282276
1.11756e-06
0.000281912
1.11556e-06
0.000281551
1.11416e-06
0.000281193
1.1091e-06
0.000280837
1.10594e-06
0.000280485
1.10086e-06
0.000280136
1.09668e-06
0.000279792
1.0887e-06
0.000279453
1.07427e-06
0.000279121
1.05865e-06
0.000278795
1.03922e-06
0.000278476
1.02044e-06
0.000278165
9.90212e-07
0.000277863
9.66856e-07
0.000277569
9.40699e-07
0.000277284
9.13939e-07
0.000277007
8.9209e-07
0.000276738
8.66462e-07
0.000276476
8.41988e-07
0.000276221
8.23489e-07
0.000275973
7.98299e-07
0.000275731
7.79993e-07
0.000275494
7.64227e-07
0.000275262
7.46315e-07
0.000275035
7.31235e-07
0.000274813
7.16458e-07
0.000274596
7.01303e-07
0.000274384
6.88743e-07
0.000274175
6.71616e-07
0.000273971
6.58587e-07
0.000273771
6.4488e-07
0.000273577
6.27555e-07
0.000273386
6.1026e-07
0.000273199
5.98867e-07
0.000273016
5.90666e-07
0.000272836
5.80948e-07
0.00027266
5.7049e-07
0.000272486
5.60924e-07
0.000272316
5.52596e-07
0.000272148
5.4601e-07
0.000271981
5.39955e-07
0.000271817
5.3322e-07
0.000271655
5.26921e-07
0.000271495
5.19537e-07
0.000271339
5.05562e-07
0.000271185
4.98039e-07
0.000271033
4.94535e-07
0.000270883
4.87688e-07
0.000270737
4.74955e-07
0.000270594
4.66108e-07
0.000270452
4.63716e-07
0.000270312
4.57318e-07
0.000270174
4.48116e-07
0.00027004
4.36456e-07
0.000269908
4.26019e-07
0.000269778
4.20385e-07
0.00026965
4.22117e-07
0.000269524
4.13645e-07
0.000269402
3.94358e-07
0.000269281
3.92131e-07
0.00026916
3.91663e-07
0.000269043
3.82584e-07
0.000268928
3.71062e-07
0.000268815
3.68778e-07
0.000268701
3.66979e-07
0.000268591
3.55964e-07
0.000268484
3.45203e-07
0.000268377
3.44583e-07
0.00026827
3.46659e-07
0.000268166
3.37124e-07
0.000268064
3.27555e-07
0.000267965
3.15847e-07
0.000267868
3.05956e-07
0.000267775
2.96164e-07
0.000267681
2.98982e-07
0.000267591
2.93219e-07
0.000267503
2.79671e-07
0.000267418
2.7041e-07
0.000267334
2.69174e-07
0.000267251
2.70111e-07
0.000267172
2.49193e-07
0.000267095
2.46527e-07
0.00026702
2.39937e-07
0.000266948
2.24148e-07
0.000266875
2.2393e-07
0.000266804
2.25182e-07
0.000266731
2.23088e-07
0.000266662
2.1943e-07
0.000266595
2.03265e-07
0.000266527
2.13352e-07
0.000266464
1.89926e-07
0.000266398
2.02578e-07
0.000266339
1.50287e-07
0.000266292
1.3099e-07
0.000266309
-1.86076e-07
-2.73886e-08
0.000662834
0.00019588
0.000676971
0.000226172
0.000678735
0.0001775
0.000676808
0.000146857
0.00067087
0.000127423
0.000661399
0.000111731
0.000649248
9.88667e-05
0.000634974
8.8782e-05
0.000619285
7.98699e-05
0.000602805
7.20952e-05
0.000586253
6.47434e-05
0.000570146
5.80176e-05
0.000554859
5.20229e-05
0.000540613
4.64932e-05
0.000527455
4.16926e-05
0.000515367
3.75567e-05
0.00050432
3.38865e-05
0.000494218
3.07127e-05
0.000484961
2.79842e-05
0.000476481
2.55262e-05
0.000468694
2.3418e-05
0.00046152
2.15567e-05
0.000454893
1.99295e-05
0.000448759
1.8448e-05
0.000443068
1.71342e-05
0.000437768
1.60066e-05
0.000432827
1.49567e-05
0.000428205
1.40397e-05
0.000423878
1.31733e-05
0.000419812
1.24164e-05
0.000415985
1.17234e-05
0.000412375
1.10979e-05
0.000408967
1.0509e-05
0.000405742
9.97545e-06
0.000402685
9.48987e-06
0.00039978
9.04537e-06
0.000397018
8.62235e-06
0.000394386
8.24358e-06
0.000391878
7.8814e-06
0.000389482
7.54581e-06
0.00038719
7.2468e-06
0.000384998
6.94917e-06
0.000382896
6.68567e-06
0.00038088
6.42505e-06
0.000378943
6.19099e-06
0.000377081
5.96771e-06
0.000375289
5.76236e-06
0.000373564
5.55849e-06
0.000371901
5.37702e-06
0.000370297
5.19335e-06
0.000368749
5.02765e-06
0.000367252
4.86888e-06
0.000365805
4.72104e-06
0.000364406
4.57436e-06
0.000363051
4.43912e-06
0.000361738
4.30801e-06
0.000360467
4.18295e-06
0.000359233
4.06759e-06
0.000358036
3.95327e-06
0.000356873
3.84749e-06
0.000355744
3.7427e-06
0.000354646
3.64527e-06
0.000353579
3.55001e-06
0.000352541
3.45814e-06
0.000351531
3.37347e-06
0.000350547
3.28843e-06
0.000349589
3.2093e-06
0.000348656
3.12985e-06
0.000347746
3.05648e-06
0.000346859
2.98346e-06
0.000345994
2.91432e-06
0.000345151
2.84744e-06
0.000344327
2.78453e-06
0.000343522
2.7213e-06
0.000342737
2.66135e-06
0.00034197
2.60283e-06
0.000341221
2.54572e-06
0.000340488
2.49117e-06
0.000339773
2.4367e-06
0.000339073
2.38688e-06
0.000338389
2.33648e-06
0.000337719
2.28987e-06
0.000337064
2.24199e-06
0.000336423
2.19877e-06
0.000335795
2.15367e-06
0.000335181
2.11255e-06
0.000334579
2.07026e-06
0.00033399
2.0301e-06
0.000333413
1.98938e-06
0.000332848
1.95098e-06
0.000332296
1.91012e-06
0.000331754
1.87192e-06
0.000331225
1.83108e-06
0.000330706
1.79454e-06
0.000330199
1.75616e-06
0.000329701
1.7228e-06
0.000329214
1.6889e-06
0.000328735
1.6607e-06
0.000328264
1.63432e-06
0.0003278
1.61383e-06
0.000327343
1.5953e-06
0.000326891
1.58256e-06
0.000326444
1.57181e-06
0.000326001
1.56355e-06
0.000325562
1.55635e-06
0.000325127
1.55042e-06
0.000324697
1.54484e-06
0.000324271
1.53504e-06
0.000323849
1.52748e-06
0.000323433
1.51728e-06
0.000323022
1.50775e-06
0.000322617
1.49311e-06
0.00032222
1.4714e-06
0.000321831
1.44802e-06
0.00032145
1.42054e-06
0.000321077
1.39312e-06
0.000320714
1.35301e-06
0.000320361
1.32018e-06
0.000320018
1.28366e-06
0.000319685
1.24652e-06
0.000319363
1.21503e-06
0.000319049
1.17982e-06
0.000318745
1.14691e-06
0.000318448
1.12056e-06
0.000318159
1.08745e-06
0.000317876
1.06253e-06
0.0003176
1.04034e-06
0.000317331
1.01594e-06
0.000317067
9.95279e-07
0.000316809
9.74689e-07
0.000316556
9.53856e-07
0.000316309
9.35958e-07
0.000316067
9.13636e-07
0.00031583
8.95898e-07
0.000315598
8.77022e-07
0.000315371
8.54167e-07
0.000315149
8.32085e-07
0.000314932
8.1632e-07
0.000314719
8.03812e-07
0.00031451
7.89814e-07
0.000314305
7.75592e-07
0.000314104
7.62167e-07
0.000313906
7.50638e-07
0.000313711
7.41255e-07
0.000313518
7.32652e-07
0.000313328
7.23188e-07
0.00031314
7.14421e-07
0.000312956
7.04349e-07
0.000312774
6.87222e-07
0.000312595
6.77512e-07
0.000312418
6.71099e-07
0.000312246
6.6029e-07
0.000312076
6.44106e-07
0.00031191
6.33017e-07
0.000311745
6.28221e-07
0.000311583
6.18945e-07
0.000311424
6.07324e-07
0.000311268
5.92474e-07
0.000311115
5.79299e-07
0.000310964
5.71254e-07
0.000310815
5.7091e-07
0.00031067
5.59139e-07
0.000310528
5.36164e-07
0.000310387
5.33328e-07
0.000310248
5.31008e-07
0.000310112
5.18457e-07
0.000309978
5.04403e-07
0.000309846
5.01618e-07
0.000309714
4.984e-07
0.000309586
4.84145e-07
0.00030946
4.71008e-07
0.000309335
4.69577e-07
0.000309212
4.7028e-07
0.000309091
4.57815e-07
0.000308973
4.45927e-07
0.000308857
4.3145e-07
0.000308744
4.18927e-07
0.000308634
4.05902e-07
0.000308526
4.07682e-07
0.00030842
3.98797e-07
0.000308318
3.82116e-07
0.000308218
3.69876e-07
0.00030812
3.67347e-07
0.000308024
3.6627e-07
0.000307932
3.41499e-07
0.000307842
3.3669e-07
0.000307753
3.28988e-07
0.000307668
3.08747e-07
0.000307583
3.09689e-07
0.000307498
3.09988e-07
0.000307413
3.08572e-07
0.000307331
3.01423e-07
0.000307251
2.8342e-07
0.000307173
2.91984e-07
0.000307097
2.65839e-07
0.00030702
2.79632e-07
0.000306952
2.18687e-07
0.00030689
1.92543e-07
0.000306885
-1.81319e-07
-8.16103e-09
0.000692312
0.000176316
0.000707614
0.00021087
0.000712069
0.000173045
0.000712615
0.000146311
0.000711317
0.000128721
0.000708071
0.000114977
0.000702734
0.000104203
0.000695582
9.59337e-05
0.000686733
8.87192e-05
0.000676232
8.25961e-05
0.000664374
7.66007e-05
0.000651507
7.08846e-05
0.000638052
6.54779e-05
0.000624473
6.0072e-05
0.000611115
5.50507e-05
0.000598224
5.04477e-05
0.000585987
4.61238e-05
0.000574476
4.22239e-05
0.000563701
3.87592e-05
0.000553666
3.55613e-05
0.000544337
3.27468e-05
0.000535663
3.02309e-05
0.000527592
2.80005e-05
0.000520079
2.59604e-05
0.000513083
2.41309e-05
0.000506548
2.2541e-05
0.000500439
2.10656e-05
0.000494715
1.97641e-05
0.000489348
1.854e-05
0.000484302
1.74623e-05
0.000479551
1.64744e-05
0.000475069
1.55802e-05
0.000470836
1.47419e-05
0.000466831
1.39802e-05
0.000463036
1.32848e-05