/*--------------------------------*- C++ -*----------------------------------*\
  =========                 |
  \\      /  F ield         | OpenFOAM: The Open Source CFD Toolbox
   \\    /   O peration     | Website:  https://openfoam.org
    \\  /    A nd           | Version:  12
     \\/     M anipulation  |
\*---------------------------------------------------------------------------*/
FoamFile
{
    format      ascii;
    class       volScalarField;
    location    "200";
    object      epsilon;
}
// * * * * * * * * * * * * * * * * * * * * * * * * * * * * * * * * * * * * * //

dimensions      [0 2 -3 0 0 0 0];

internalField   nonuniform List<scalar> 
20000
(
0.0755143
0.0283659
0.0314201
0.04193
0.0488487
0.0543106
0.0597936
0.0655347
0.0703471
0.0747427
0.0777082
0.0809328
0.0829896
0.0850571
0.0868064
0.0884101
0.0896329
0.090691
0.0915368
0.0923018
0.09288
0.0933611
0.0937427
0.0940417
0.0942982
0.0944614
0.0945838
0.0946559
0.0946777
0.094667
0.0946365
0.0945689
0.0944766
0.0943683
0.0942383
0.0940941
0.0939436
0.0937795
0.0935989
0.0934179
0.0932251
0.0930303
0.0928285
0.0926237
0.0924165
0.092208
0.0919918
0.0917805
0.0915639
0.09135
0.0911373
0.0909235
0.0907093
0.0904934
0.0902839
0.0900691
0.0898604
0.0896484
0.089448
0.0892445
0.0890531
0.08886
0.0886846
0.0885008
0.0883247
0.0881337
0.0879462
0.0877527
0.0875444
0.0873376
0.0870991
0.0868519
0.0866056
0.0863417
0.086101
0.0858315
0.0855658
0.0852816
0.0850221
0.0847453
0.0844913
0.0842282
0.0839923
0.0837588
0.0835397
0.0833166
0.0830679
0.0828266
0.0825733
0.0823417
0.0821058
0.0819036
0.0816923
0.081457
0.0812328
0.0810263
0.0808142
0.0806319
0.0804182
0.0801902
0.0799862
0.0798148
0.0796401
0.0794834
0.0792953
0.0791195
0.0789741
0.0788645
0.0787144
0.0785611
0.0784358
0.0783224
0.0782009
0.07808
0.0779518
0.077851
0.077766
0.0776781
0.0775904
0.077513
0.0774299
0.0773567
0.077282
0.0772051
0.0771309
0.0770611
0.076995
0.0769349
0.0768768
0.076825
0.0767763
0.0767248
0.0766726
0.0766269
0.0765773
0.0765475
0.0765201
0.0765024
0.076492
0.0764802
0.0764666
0.0764444
0.0764072
0.0763638
0.0763179
0.0762706
0.0762015
0.0761498
0.0761
0.0760463
0.075966
0.0759025
0.0758555
0.0757838
0.0757128
0.0756465
0.0755773
0.0755143
0.0754126
0.0753388
0.0752595
0.0751832
0.0750869
0.0750009
0.0749018
0.0747852
0.0746863
0.074667
0.0746423
0.0745972
0.0745041
0.0743742
0.074262
0.0742181
0.0741457
0.0740123
0.0739185
0.0738235
0.0737147
0.0736746
0.0736217
0.0735636
0.0734987
0.0734458
0.0733573
0.0732621
0.0731788
0.0730939
0.0730213
0.0729157
0.0728532
0.0728188
0.0727774
0.0726817
0.0726248
0.0725369
0.0724367
0.0723194
0.0722934
0.0722055
0.0279445
0.0395259
0.0599294
0.0772996
0.083196
0.0855799
0.0876037
0.0899356
0.0913013
0.0923827
0.0922737
0.0924505
0.0920199
0.0916031
0.0911205
0.0906806
0.09007
0.0894536
0.0887762
0.0881388
0.0874527
0.0867735
0.0860954
0.0854191
0.0847772
0.0841219
0.0834865
0.0828603
0.0822414
0.0816371
0.0810536
0.0804769
0.0799124
0.0793644
0.0788269
0.078303
0.0777952
0.0773
0.0768111
0.0763401
0.0758772
0.0754281
0.0749887
0.0745607
0.0741435
0.0737378
0.0733378
0.0729511
0.0725716
0.0722021
0.0718435
0.0714921
0.071149
0.0708116
0.0704862
0.0701637
0.0698524
0.0695442
0.0692504
0.0689596
0.0686834
0.06841
0.0681548
0.0678989
0.0676538
0.0674028
0.0671567
0.066911
0.0666579
0.0664091
0.0661438
0.0658727
0.0656054
0.0653265
0.0650682
0.0647955
0.0645306
0.0642543
0.0639989
0.0637355
0.0634917
0.0632449
0.0630193
0.062799
0.0625917
0.0623876
0.0621689
0.0619566
0.0617364
0.0615304
0.0613216
0.0611355
0.0609484
0.0607472
0.0605511
0.0603677
0.0601798
0.0600136
0.059832
0.0596397
0.0594585
0.0593007
0.0591426
0.0589999
0.0588384
0.0586831
0.058545
0.0584362
0.0583069
0.0581712
0.0580522
0.0579441
0.057833
0.0577238
0.0576084
0.0575096
0.0574234
0.0573381
0.057252
0.0571742
0.0570938
0.0570208
0.0569493
0.0568769
0.056806
0.0567384
0.0566736
0.0566135
0.0565557
0.0565024
0.0564523
0.0564018
0.0563501
0.0563032
0.0562524
0.0562138
0.0561775
0.0561474
0.0561239
0.0561008
0.0560774
0.0560498
0.0560136
0.055972
0.0559282
0.0558849
0.0558269
0.0557782
0.0557319
0.0556851
0.0556202
0.0555628
0.0555177
0.0554585
0.0553976
0.055339
0.0552786
0.0552249
0.0551462
0.0550814
0.0550136
0.0549496
0.0548727
0.0548024
0.0547243
0.0546345
0.05455
0.0545144
0.0544809
0.0544393
0.0543703
0.0542779
0.0541851
0.0541374
0.0540799
0.0539806
0.0539026
0.0538263
0.0537385
0.0536941
0.0536458
0.0535954
0.0535405
0.0534947
0.0534281
0.0533544
0.0532898
0.0532214
0.0531647
0.0530828
0.053027
0.0529852
0.0529506
0.0528729
0.0528236
0.0527486
0.0526769
0.0525789
0.0525485
0.0524903
0.00616115
0.0183343
0.0321146
0.0491405
0.0621312
0.0722129
0.0795462
0.0850484
0.0882663
0.0902951
0.0907653
0.0909292
0.0905357
0.0898486
0.0890132
0.088157
0.0871674
0.0861436
0.0850867
0.0840708
0.0830451
0.0820418
0.0810629
0.0801072
0.0791986
0.0783055
0.0774455
0.0766139
0.0758077
0.0750308
0.0742854
0.0735622
0.0728631
0.0721902
0.0715386
0.0709104
0.0703042
0.0697193
0.0691492
0.0686015
0.0680695
0.0675555
0.0670574
0.0665746
0.0661071
0.0656547
0.0652135
0.0647871
0.0643726
0.0639699
0.0635809
0.0632016
0.0628338
0.062474
0.0621275
0.0617869
0.0614585
0.0611358
0.0608267
0.0605232
0.0602333
0.0599481
0.059679
0.0594131
0.0591581
0.0589027
0.0586523
0.0584066
0.0581571
0.0579153
0.0576638
0.057411
0.0571623
0.0569072
0.0566696
0.0564251
0.0561884
0.0559458
0.0557198
0.0554895
0.0552741
0.0550587
0.0548596
0.0546671
0.054485
0.0543073
0.054121
0.0539401
0.0537526
0.0535758
0.0533967
0.0532337
0.0530716
0.0529007
0.0527331
0.0525742
0.0524122
0.0522665
0.0521113
0.0519483
0.0517915
0.0516522
0.0515134
0.0513871
0.0512481
0.0511134
0.0509905
0.0508906
0.050777
0.0506592
0.0505529
0.0504549
0.0503558
0.0502585
0.0501563
0.0500679
0.0499886
0.0499123
0.0498352
0.0497641
0.0496916
0.0496256
0.0495611
0.0494968
0.0494331
0.0493725
0.0493146
0.0492602
0.0492077
0.0491582
0.0491112
0.0490644
0.0490165
0.0489724
0.0489253
0.0488867
0.0488495
0.048818
0.0487918
0.0487668
0.0487435
0.0487175
0.0486862
0.0486504
0.0486135
0.0485773
0.04853
0.0484882
0.0484479
0.0484079
0.0483545
0.0483055
0.0482656
0.0482168
0.0481653
0.0481145
0.0480641
0.0480192
0.0479558
0.0479002
0.047843
0.0477906
0.0477285
0.0476704
0.0476076
0.0475365
0.0474671
0.04743
0.0473964
0.0473597
0.0473046
0.0472332
0.0471575
0.0471146
0.0470672
0.046991
0.0469271
0.0468634
0.046793
0.0467512
0.0467078
0.0466653
0.0466196
0.0465797
0.046525
0.0464663
0.0464152
0.0463592
0.0463109
0.0462458
0.0461991
0.0461606
0.0461304
0.046066
0.0460227
0.0459618
0.0459037
0.0458246
0.0457844
0.0457143
0.00171955
0.00660784
0.0121024
0.0206189
0.0298697
0.0397191
0.0490401
0.0575075
0.0640682
0.0691489
0.0723497
0.0746189
0.0758918
0.0765454
0.0766989
0.0765927
0.0762296
0.0756555
0.0749627
0.0742227
0.0734341
0.072612
0.0717828
0.0709485
0.0701351
0.0693275
0.068536
0.0677635
0.0670095
0.0662781
0.0655713
0.0648846
0.0642189
0.0635762
0.0629532
0.062352
0.0617709
0.0612099
0.0606641
0.0601385
0.0596291
0.0591363
0.0586598
0.0581977
0.0577507
0.0573182
0.0568977
0.0564908
0.0560964
0.055713
0.0553431
0.0549827
0.054634
0.0542934
0.0539652
0.0536438
0.0533335
0.0530294
0.0527373
0.0524513
0.052177
0.051908
0.0516525
0.0514021
0.0511619
0.0509241
0.0506911
0.0504653
0.0502373
0.0500189
0.0497941
0.0495709
0.0493513
0.049128
0.0489195
0.0487077
0.0485024
0.0482941
0.048099
0.0479009
0.047714
0.0475282
0.0473554
0.0471895
0.0470322
0.0468789
0.0467203
0.0465666
0.0464069
0.046256
0.0461028
0.0459622
0.0458226
0.0456771
0.0455344
0.0453977
0.0452587
0.0451328
0.0449996
0.0448606
0.0447254
0.044604
0.0444832
0.0443727
0.0442526
0.044136
0.0440283
0.0439393
0.0438393
0.0437373
0.043644
0.0435571
0.0434694
0.0433833
0.0432934
0.043216
0.0431457
0.043079
0.0430117
0.0429489
0.0428846
0.0428267
0.04277
0.0427142
0.0426584
0.042605
0.0425546
0.042507
0.0424608
0.0424169
0.0423747
0.042333
0.0422904
0.0422514
0.0422099
0.042175
0.0421411
0.0421126
0.0420882
0.0420654
0.0420455
0.0420236
0.0419985
0.0419692
0.0419396
0.0419106
0.0418725
0.0418379
0.0418042
0.0417707
0.041727
0.0416862
0.0416526
0.0416126
0.0415699
0.0415269
0.0414855
0.0414487
0.041397
0.0413504
0.0413028
0.0412606
0.0412104
0.0411627
0.0411121
0.0410551
0.0409986
0.040965
0.0409352
0.0409043
0.0408594
0.0408025
0.0407407
0.0407044
0.0406651
0.0406048
0.0405523
0.0404981
0.0404407
0.0404032
0.0403649
0.0403292
0.0402912
0.0402568
0.04021
0.0401618
0.0401201
0.0400734
0.0400311
0.0399781
0.0399392
0.0399065
0.0398801
0.0398275
0.0397894
0.0397405
0.0396925
0.0396318
0.0395894
0.0395117
0.000874541
0.0025855
0.00466031
0.007938
0.0121236
0.017263
0.023009
0.0295082
0.0359492
0.0423021
0.047662
0.0521868
0.0556581
0.0582509
0.060076
0.0613586
0.0621536
0.0625816
0.0627124
0.0626586
0.062469
0.062129
0.0617165
0.0612352
0.0607258
0.060187
0.0596241
0.0590529
0.0584766
0.0579021
0.0573358
0.0567754
0.0562234
0.0556837
0.0551548
0.0546395
0.0541373
0.0536492
0.0531719
0.0527091
0.052259
0.0518214
0.051397
0.0509842
0.0505838
0.0501953
0.0498173
0.0494503
0.0490943
0.0487476
0.0484125
0.0480858
0.0477694
0.0474603
0.047162
0.0468699
0.0465875
0.0463108
0.046044
0.045783
0.0455319
0.0452858
0.0450511
0.044822
0.0446024
0.0443866
0.0441752
0.0439724
0.043768
0.0435743
0.0433757
0.0431803
0.0429877
0.0427926
0.0426101
0.0424257
0.0422468
0.042066
0.0418958
0.041723
0.0415588
0.0413959
0.0412439
0.0410985
0.0409607
0.0408264
0.040689
0.0405561
0.0404176
0.0402867
0.0401538
0.0400312
0.0399094
0.0397834
0.0396602
0.039541
0.0394199
0.03931
0.0391937
0.0390731
0.0389548
0.0388475
0.0387408
0.038643
0.038537
0.0384345
0.038339
0.038259
0.0381694
0.0380796
0.0379968
0.0379188
0.03784
0.0377625
0.0376822
0.0376136
0.0375508
0.0374918
0.0374321
0.0373761
0.0373183
0.037267
0.0372166
0.0371674
0.0371181
0.0370705
0.0370261
0.036984
0.0369433
0.0369043
0.0368666
0.0368296
0.0367919
0.0367576
0.0367214
0.0366906
0.0366605
0.0366353
0.0366139
0.036594
0.0365778
0.0365599
0.0365402
0.0365167
0.036493
0.0364699
0.036439
0.0364105
0.0363825
0.0363544
0.0363184
0.0362843
0.0362563
0.0362234
0.0361877
0.0361514
0.0361174
0.0360872
0.0360443
0.036005
0.0359651
0.0359309
0.0358898
0.0358502
0.0358087
0.0357621
0.0357156
0.035686
0.0356601
0.0356343
0.0355974
0.035551
0.0354998
0.0354692
0.035436
0.0353869
0.0353428
0.0352955
0.0352473
0.0352134
0.0351789
0.0351483
0.0351161
0.0350857
0.0350443
0.035003
0.0349678
0.0349273
0.0348891
0.0348447
0.0348115
0.0347838
0.03476
0.0347169
0.0346829
0.034643
0.0346029
0.0345546
0.0345167
0.0344368
0.000656669
0.00132071
0.00217035
0.0034192
0.0050385
0.00722954
0.00981482
0.0131009
0.016812
0.0211527
0.0256757
0.0302686
0.0345645
0.0383896
0.041607
0.044271
0.0463742
0.0479983
0.0491997
0.0500717
0.0506746
0.0510441
0.0512426
0.0512819
0.0512348
0.051103
0.0508872
0.0506249
0.0503212
0.0499883
0.0496401
0.0492727
0.0488941
0.0485112
0.0481241
0.0477374
0.0473533
0.0469727
0.046595
0.0462232
0.0458577
0.0454983
0.0451467
0.0448019
0.0444649
0.0441358
0.0438138
0.0434994
0.0431931
0.0428933
0.0426024
0.0423179
0.0420413
0.0417706
0.0415083
0.0412511
0.0410016
0.0407566
0.0405194
0.0402872
0.0400628
0.0398427
0.039632
0.0394268
0.0392299
0.0390377
0.0388491
0.0386696
0.0384888
0.0383186
0.0381447
0.0379744
0.0378061
0.0376354
0.0374753
0.0373138
0.0371567
0.0369981
0.0368481
0.0366954
0.0365493
0.0364043
0.0362685
0.0361392
0.0360167
0.0358972
0.0357765
0.03566
0.0355383
0.0354234
0.0353068
0.0351988
0.0350913
0.0349812
0.0348737
0.0347686
0.0346622
0.0345652
0.0344624
0.0343567
0.0342521
0.0341563
0.0340608
0.033973
0.0338783
0.0337872
0.0337014
0.0336285
0.0335472
0.0334672
0.0333928
0.0333219
0.0332501
0.0331794
0.0331068
0.033045
0.0329882
0.0329348
0.032881
0.0328302
0.0327776
0.0327315
0.0326862
0.0326422
0.0325978
0.0325547
0.0325152
0.0324774
0.0324414
0.0324064
0.0323727
0.0323398
0.0323063
0.0322763
0.0322447
0.0322175
0.0321911
0.0321691
0.0321504
0.0321334
0.0321204
0.032106
0.0320907
0.032072
0.0320531
0.0320347
0.0320097
0.0319863
0.0319629
0.0319394
0.0319096
0.0318812
0.0318578
0.0318308
0.0318011
0.0317705
0.0317424
0.0317176
0.0316819
0.0316487
0.0316149
0.0315871
0.031553
0.0315198
0.0314853
0.0314467
0.0314081
0.0313821
0.0313597
0.031338
0.0313076
0.0312696
0.031227
0.0312009
0.0311725
0.0311321
0.0310945
0.0310526
0.0310112
0.0309801
0.0309485
0.0309218
0.0308938
0.0308661
0.0308287
0.0307925
0.0307619
0.0307256
0.0306905
0.0306522
0.0306235
0.0305995
0.0305778
0.0305421
0.0305113
0.0304782
0.0304445
0.0304043
0.0303713
0.0302958
0.000586347
0.000877769
0.00127565
0.00181692
0.00247248
0.00336812
0.00442319
0.00582697
0.00748436
0.00959141
0.0120575
0.014922
0.0180659
0.02137
0.0246295
0.0277361
0.0305507
0.0330245
0.0351244
0.036877
0.0383066
0.0394457
0.0403408
0.0410161
0.0415219
0.0418839
0.0421177
0.0422534
0.0423012
0.0422841
0.0422238
0.0421074
0.0419562
0.0417791
0.0415774
0.041359
0.0411297
0.0408884
0.0406388
0.040384
0.0401269
0.0398663
0.0396068
0.0393476
0.0390896
0.0388342
0.038581
0.0383309
0.0380847
0.0378414
0.0376034
0.037369
0.0371393
0.0369133
0.0366928
0.0364756
0.0362637
0.0360547
0.0358511
0.0356511
0.0354568
0.0352657
0.0350818
0.0349029
0.0347307
0.0345634
0.0343989
0.034243
0.0340861
0.0339388
0.0337885
0.0336414
0.0334956
0.033347
0.033207
0.0330654
0.0329272
0.0327873
0.0326542
0.0325184
0.0323873
0.0322571
0.0321346
0.0320184
0.0319084
0.0318011
0.031694
0.0315911
0.0314832
0.0313817
0.0312789
0.031183
0.0310878
0.0309912
0.0308969
0.0308038
0.0307099
0.0306239
0.0305327
0.0304397
0.0303466
0.0302605
0.0301745
0.0300951
0.0300098
0.0299285
0.0298508
0.0297836
0.0297093
0.0296374
0.02957
0.0295051
0.029439
0.0293739
0.0293078
0.0292515
0.0291994
0.0291503
0.0291011
0.0290545
0.029006
0.0289641
0.0289226
0.0288828
0.0288424
0.0288028
0.0287673
0.0287331
0.0287009
0.0286694
0.0286392
0.0286098
0.0285801
0.0285537
0.0285262
0.0285022
0.028479
0.0284597
0.0284435
0.028429
0.0284187
0.0284073
0.0283955
0.0283807
0.0283657
0.0283511
0.0283311
0.0283119
0.0282925
0.0282728
0.0282483
0.0282245
0.028205
0.0281829
0.0281583
0.0281327
0.0281097
0.0280895
0.0280596
0.0280315
0.0280028
0.0279802
0.0279518
0.0279238
0.0278949
0.0278628
0.0278305
0.0278076
0.0277881
0.0277696
0.0277447
0.0277138
0.0276785
0.0276561
0.0276318
0.0275986
0.0275664
0.0275291
0.0274933
0.0274643
0.0274352
0.0274112
0.0273864
0.0273607
0.0273265
0.0272943
0.027267
0.0272337
0.0272011
0.0271674
0.0271421
0.027121
0.027101
0.027071
0.0270431
0.027015
0.0269867
0.0269528
0.0269229
0.0268552
0.000560626
0.000697853
0.000905006
0.00117547
0.00147941
0.00188083
0.00233242
0.0029237
0.00361822
0.0045128
0.00559947
0.00694993
0.00856478
0.0104641
0.0125942
0.0149155
0.0173248
0.0197351
0.0220447
0.0241923
0.0261308
0.0278387
0.0293183
0.0305736
0.0316283
0.0325035
0.0332157
0.0337903
0.0342414
0.0345896
0.0348541
0.0350412
0.0351633
0.0352345
0.0352561
0.0352436
0.0352042
0.0351319
0.0350387
0.0349269
0.034802
0.0346615
0.0345144
0.0343592
0.0341967
0.0340299
0.0338592
0.0336861
0.0335112
0.033335
0.0331597
0.032984
0.0328093
0.0326352
0.0324632
0.0322921
0.0321232
0.0319553
0.0317901
0.0316266
0.0314664
0.0313079
0.0311543
0.0310046
0.0308598
0.0307194
0.0305807
0.0304497
0.0303173
0.0301933
0.0300665
0.0299421
0.0298181
0.0296906
0.0295695
0.0294464
0.0293256
0.0292025
0.0290848
0.0289639
0.0288463
0.0287292
0.0286183
0.0285133
0.0284141
0.0283174
0.0282221
0.0281307
0.0280351
0.0279452
0.0278544
0.0277693
0.027685
0.0276003
0.0275177
0.0274353
0.0273526
0.0272763
0.0271955
0.0271141
0.0270312
0.026954
0.0268763
0.0268042
0.0267274
0.0266547
0.0265841
0.026522
0.0264539
0.026389
0.0263277
0.026268
0.0262072
0.026147
0.0260865
0.0260348
0.0259866
0.0259409
0.0258956
0.0258522
0.0258073
0.0257687
0.0257304
0.0256938
0.0256567
0.0256201
0.0255878
0.0255565
0.0255276
0.025499
0.025472
0.0254458
0.0254195
0.0253964
0.0253725
0.0253514
0.0253309
0.0253139
0.0252998
0.0252875
0.0252793
0.0252704
0.0252615
0.0252499
0.025238
0.0252266
0.0252107
0.025195
0.025179
0.0251626
0.0251424
0.0251226
0.0251064
0.0250885
0.0250684
0.0250471
0.0250284
0.0250121
0.0249873
0.0249638
0.0249393
0.024921
0.0248974
0.024874
0.0248495
0.0248229
0.0247958
0.0247755
0.0247583
0.0247425
0.0247221
0.0246972
0.0246682
0.024649
0.0246285
0.0246016
0.0245743
0.0245413
0.0245102
0.0244832
0.0244562
0.0244345
0.024412
0.0243879
0.0243565
0.0243275
0.0243029
0.0242719
0.0242415
0.0242112
0.024189
0.0241698
0.0241513
0.0241255
0.0241005
0.0240762
0.0240523
0.0240235
0.0239969
0.0239371
0.000550225
0.00061753
0.000730385
0.000879608
0.00103946
0.00124294
0.00146187
0.00173477
0.0020449
0.00243042
0.00289165
0.00346879
0.00417092
0.00504086
0.00608467
0.00732326
0.00874538
0.0103367
0.0120521
0.0138405
0.015642
0.0173989
0.019067
0.0206101
0.0220114
0.0232651
0.0243679
0.0253305
0.0261584
0.0268664
0.0274661
0.0279694
0.0283853
0.0287276
0.0290022
0.0292201
0.0293903
0.0295156
0.0296034
0.0296579
0.0296868
0.029686
0.0296721
0.0296386
0.0295875
0.0295249
0.0294509
0.0293682
0.0292766
0.0291791
0.0290771
0.0289698
0.028859
0.028745
0.0286291
0.0285113
0.0283918
0.028271
0.0281501
0.0280282
0.0279071
0.0277857
0.0276667
0.0275499
0.0274359
0.0273254
0.0272151
0.0271109
0.0270049
0.0269053
0.026803
0.0267019
0.0266003
0.0264941
0.026392
0.0262874
0.0261837
0.0260769
0.025974
0.0258675
0.0257628
0.0256581
0.0255583
0.0254638
0.0253744
0.0252875
0.0252029
0.0251219
0.0250374
0.0249582
0.0248783
0.0248031
0.0247289
0.0246553
0.0245832
0.024511
0.0244387
0.0243716
0.0243006
0.0242297
0.0241565
0.0240877
0.024018
0.0239528
0.0238838
0.023819
0.0237549
0.0236977
0.0236354
0.023577
0.0235213
0.0234664
0.0234106
0.023355
0.0232997
0.023252
0.0232073
0.0231645
0.0231227
0.0230821
0.0230404
0.0230044
0.0229686
0.0229348
0.0229005
0.0228665
0.0228368
0.022808
0.0227819
0.0227559
0.0227318
0.0227085
0.0226853
0.022665
0.0226445
0.022626
0.0226082
0.0225932
0.0225807
0.0225703
0.0225638
0.022557
0.0225503
0.0225414
0.0225322
0.0225234
0.0225109
0.0224983
0.0224851
0.0224714
0.022455
0.0224385
0.022425
0.0224107
0.0223945
0.0223772
0.0223621
0.0223493
0.022329
0.0223096
0.0222888
0.0222742
0.0222548
0.0222353
0.0222147
0.0221926
0.02217
0.0221521
0.0221369
0.0221232
0.0221065
0.0220865
0.0220633
0.0220471
0.0220301
0.0220087
0.021986
0.0219573
0.0219304
0.0219056
0.0218806
0.0218611
0.0218403
0.0218175
0.0217887
0.0217625
0.0217401
0.0217112
0.0216828
0.0216552
0.0216356
0.0216179
0.0216006
0.0215782
0.0215558
0.0215344
0.0215142
0.0214895
0.021466
0.0214141
0.000545455
0.000579647
0.000641205
0.000727217
0.00081865
0.000932041
0.00105121
0.00119283
0.00134821
0.00153186
0.00174359
0.00199897
0.00230298
0.00267741
0.00313078
0.00368571
0.00435475
0.00515197
0.00608236
0.00714358
0.00832263
0.00959468
0.0109291
0.0122875
0.0136337
0.0149397
0.0161765
0.0173315
0.0183901
0.0193523
0.0202157
0.0209854
0.021664
0.0222605
0.0227795
0.0232295
0.0236168
0.0239477
0.024228
0.0244624
0.0246587
0.0248166
0.0249457
0.0250475
0.0251236
0.025179
0.0252148
0.025235
0.0252379
0.025231
0.0252132
0.0251837
0.0251461
0.025101
0.0250494
0.0249926
0.0249296
0.0248629
0.0247927
0.0247182
0.0246418
0.0245627
0.0244833
0.0244038
0.0243251
0.0242479
0.0241695
0.0240951
0.024018
0.0239452
0.023869
0.0237929
0.0237151
0.0236314
0.0235498
0.0234645
0.023379
0.0232891
0.0232014
0.0231098
0.0230185
0.0229265
0.0228378
0.0227538
0.0226743
0.022597
0.0225225
0.0224514
0.0223774
0.0223083
0.0222388
0.0221731
0.0221085
0.0220454
0.0219834
0.0219211
0.0218589
0.0218008
0.0217393
0.0216785
0.0216148
0.0215543
0.0214925
0.0214342
0.0213728
0.0213154
0.0212579
0.0212058
0.0211493
0.0210966
0.0210464
0.0209964
0.0209456
0.0208947
0.0208442
0.0208005
0.020759
0.0207188
0.0206805
0.0206423
0.0206036
0.0205702
0.0205366
0.0205052
0.0204732
0.0204416
0.0204141
0.0203874
0.0203636
0.0203401
0.0203185
0.0202979
0.0202776
0.0202601
0.0202426
0.0202268
0.0202115
0.0201982
0.0201874
0.0201785
0.0201733
0.0201682
0.0201634
0.0201567
0.0201497
0.0201429
0.0201334
0.0201235
0.0201127
0.0201013
0.0200881
0.0200746
0.0200632
0.0200519
0.0200391
0.0200256
0.0200136
0.0200037
0.0199874
0.0199719
0.0199545
0.0199432
0.0199274
0.0199117
0.0198945
0.0198764
0.0198578
0.0198422
0.0198289
0.0198167
0.0198029
0.0197874
0.019769
0.0197555
0.0197417
0.0197253
0.019707
0.0196824
0.0196598
0.0196375
0.0196148
0.0195973
0.019578
0.0195566
0.01953
0.0195067
0.0194861
0.0194594
0.0194329
0.0194075
0.01939
0.0193736
0.0193574
0.0193376
0.0193178
0.0192984
0.0192812
0.0192601
0.0192393
0.0191953
0.000542878
0.000560854
0.000593649
0.000643202
0.000697433
0.000764184
0.000834219
0.0009147
0.00100106
0.00109887
0.00120753
0.00133267
0.00147642
0.00164694
0.00184797
0.00209069
0.00238354
0.00273637
0.00316178
0.00366897
0.00426565
0.00495588
0.00573932
0.00660836
0.00754755
0.00854225
0.00956632
0.0106016
0.0116219
0.0126134
0.0135588
0.0144503
0.0152786
0.0160432
0.0167412
0.0173757
0.0179475
0.0184607
0.0189186
0.0193248
0.019685
0.0200008
0.0202781
0.0205201
0.0207294
0.0209101
0.0210642
0.0211951
0.021304
0.0213941
0.021468
0.0215258
0.0215701
0.0216018
0.0216224
0.0216341
0.0216342
0.0216289
0.0216157
0.0215946
0.0215689
0.0215375
0.0215032
0.0214659
0.021427
0.0213873
0.0213449
0.0213037
0.0212589
0.0212159
0.0211684
0.0211195
0.021068
0.0210087
0.0209499
0.0208857
0.0208205
0.0207489
0.0206784
0.0206026
0.0205258
0.0204477
0.0203713
0.0202985
0.0202294
0.0201621
0.0200977
0.0200364
0.0199728
0.0199136
0.0198544
0.0197981
0.019743
0.0196899
0.0196379
0.0195855
0.0195332
0.0194844
0.0194323
0.0193813
0.0193271
0.0192751
0.0192215
0.0191705
0.0191165
0.0190669
0.0190162
0.0189693
0.0189187
0.0188722
0.0188272
0.0187823
0.0187366
0.0186906
0.0186449
0.0186051
0.0185669
0.0185293
0.0184946
0.0184587
0.0184235
0.0183924
0.0183609
0.0183317
0.0183019
0.0182725
0.018247
0.0182222
0.0182004
0.0181791
0.01816
0.0181418
0.0181242
0.0181094
0.0180949
0.0180816
0.0180684
0.0180572
0.0180479
0.0180403
0.0180363
0.0180326
0.0180293
0.0180244
0.0180192
0.0180142
0.0180069
0.0179996
0.0179908
0.0179817
0.017971
0.01796
0.0179505
0.0179419
0.0179319
0.0179217
0.0179126
0.0179053
0.0178927
0.0178809
0.0178668
0.0178584
0.0178461
0.0178337
0.0178195
0.0178051
0.0177904
0.0177772
0.0177656
0.0177549
0.0177434
0.0177317
0.0177174
0.0177065
0.0176955
0.0176833
0.0176692
0.0176485
0.0176303
0.0176109
0.0175908
0.0175753
0.0175575
0.0175376
0.0175135
0.017493
0.017474
0.0174495
0.017425
0.0174014
0.017386
0.0173709
0.0173559
0.0173379
0.0173203
0.0173024
0.017288
0.01727
0.017251
0.0172152
0.000541241
0.000550726
0.000567541
0.000595115
0.00062713
0.000667085
0.000709694
0.000757957
0.000809326
0.000865965
0.000927207
0.00099525
0.0010706
0.00115653
0.00125421
0.00136829
0.00150187
0.00165991
0.00184876
0.002074
0.00234275
0.00266252
0.00303956
0.00347957
0.00398377
0.00455584
0.00518886
0.00587984
0.00661478
0.00738477
0.00817292
0.00896811
0.00975412
0.0105223
0.0112612
0.0119659
0.01263
0.0132515
0.0138285
0.0143608
0.0148501
0.0152966
0.0157033
0.0160721
0.0164053
0.0167054
0.0169751
0.017216
0.0174312
0.0176216
0.017791
0.0179397
0.0180704
0.018184
0.0182823
0.0183669
0.0184378
0.0184973
0.0185466
0.0185847
0.0186151
0.0186367
0.0186524
0.0186622
0.0186677
0.0186697
0.0186676
0.0186634
0.0186546
0.0186447
0.0186291
0.0186101
0.0185878
0.0185556
0.0185222
0.0184814
0.0184394
0.0183882
0.0183374
0.0182794
0.0182199
0.0181569
0.0180947
0.018034
0.0179763
0.0179203
0.0178667
0.0178154
0.0177625
0.0177136
0.0176647
0.0176179
0.0175725
0.0175296
0.0174873
0.0174449
0.0174031
0.0173635
0.0173209
0.0172801
0.0172354
0.0171921
0.0171472
0.0171037
0.0170577
0.017016
0.0169725
0.0169315
0.0168874
0.016847
0.0168076
0.0167679
0.0167276
0.0166867
0.0166459
0.0166101
0.0165753
0.0165408
0.0165096
0.0164764
0.016445
0.0164168
0.0163872
0.0163608
0.0163332
0.0163059
0.0162821
0.0162592
0.0162391
0.0162201
0.0162034
0.0161875
0.0161723
0.01616
0.0161478
0.016137
0.0161264
0.0161171
0.0161095
0.0161033
0.0161003
0.0160978
0.0160958
0.0160923
0.0160888
0.0160852
0.0160797
0.0160742
0.0160675
0.0160604
0.016052
0.0160433
0.0160355
0.016029
0.0160215
0.0160141
0.0160079
0.0160031
0.015994
0.0159856
0.0159749
0.0159692
0.01596
0.0159507
0.0159398
0.0159285
0.0159175
0.015907
0.0158971
0.0158881
0.0158785
0.0158699
0.0158591
0.0158503
0.0158421
0.0158334
0.0158227
0.015806
0.0157921
0.0157759
0.0157587
0.0157456
0.0157295
0.0157113
0.0156896
0.015672
0.0156551
0.015633
0.0156106
0.0155885
0.0155756
0.0155619
0.0155479
0.0155312
0.0155151
0.0154986
0.0154869
0.0154719
0.0154537
0.0154264
0.000540074
0.000544562
0.000552635
0.000566943
0.000585051
0.000608512
0.000634344
0.000663766
0.000695234
0.000729602
0.000766237
0.000806064
0.000848955
0.000896409
0.000948574
0.00100749
0.00107415
0.00115064
0.00123969
0.00134323
0.00146518
0.00160933
0.00177922
0.00198033
0.00221565
0.0024918
0.00280956
0.00317465
0.00358518
0.00404337
0.00454346
0.00508353
0.00565395
0.00624919
0.00685833
0.0074744
0.00808735
0.00869069
0.00927743
0.00984245
0.0103825
0.0108943
0.0113766
0.0118285
0.0122501
0.0126414
0.0130041
0.0133377
0.0136455
0.0139266
0.0141845
0.0144191
0.0146333
0.014827
0.0150029
0.0151611
0.0153038
0.0154308
0.0155451
0.0156453
0.0157349
0.0158127
0.0158821
0.0159425
0.0159961
0.0160439
0.0160847
0.0161217
0.0161516
0.0161782
0.016198
0.0162116
0.0162222
0.0162194
0.0162144
0.0161995
0.0161838
0.0161552
0.0161268
0.0160892
0.0160499
0.0160046
0.015958
0.0159117
0.015867
0.0158235
0.0157824
0.0157421
0.0157008
0.0156628
0.0156244
0.0155876
0.0155523
0.0155196
0.0154874
0.0154552
0.0154241
0.0153938
0.0153613
0.0153306
0.0152956
0.0152619
0.0152258
0.0151905
0.0151528
0.0151196
0.0150839
0.0150493
0.0150129
0.0149784
0.0149451
0.0149111
0.0148764
0.0148411
0.0148055
0.014774
0.0147426
0.0147117
0.0146848
0.0146544
0.014627
0.0146021
0.0145753
0.0145523
0.014527
0.0145017
0.0144798
0.0144585
0.0144397
0.014424
0.0144093
0.0143954
0.0143822
0.0143724
0.0143623
0.0143537
0.0143459
0.0143387
0.014333
0.0143284
0.0143264
0.014325
0.0143241
0.0143219
0.0143199
0.0143173
0.0143135
0.0143093
0.0143043
0.0142989
0.0142927
0.0142859
0.01428
0.0142752
0.0142699
0.0142649
0.0142613
0.0142588
0.0142538
0.0142484
0.0142409
0.014238
0.0142321
0.0142257
0.0142179
0.0142094
0.0142025
0.0141943
0.0141864
0.0141791
0.0141717
0.014166
0.0141576
0.0141507
0.0141449
0.0141391
0.0141313
0.0141183
0.0141089
0.014096
0.0140823
0.0140714
0.0140573
0.0140408
0.0140218
0.0140077
0.0139933
0.0139735
0.0139532
0.0139327
0.0139235
0.0139114
0.0138978
0.0138817
0.013867
0.0138515
0.0138433
0.0138311
0.0138126
0.0137936
0.000539162
0.000540392
0.00054354
0.000549992
0.000559333
0.000572275
0.000587287
0.000604842
0.000623961
0.000644997
0.000667405
0.00069158
0.000717228
0.000745048
0.000774921
0.00080774
0.000843915
0.000884084
0.000929669
0.000981165
0.00104028
0.00110873
0.00118769
0.00128041
0.00138795
0.00151448
0.00166098
0.00183268
0.00203013
0.00225818
0.0025167
0.00280955
0.00313492
0.003494
0.00388324
0.00430093
0.00474163
0.0052011
0.00567328
0.00615242
0.00663337
0.00711039
0.00757948
0.00803628
0.00847846
0.00890252
0.0093085
0.0096929
0.0100577
0.0104
0.0107223
0.0110229
0.0113043
0.011565
0.0118081
0.012032
0.0122398
0.0124301
0.0126061
0.0127661
0.0129138
0.0130475
0.0131706
0.0132827
0.0133853
0.0134803
0.013566
0.013646
0.0137169
0.0137822
0.0138398
0.0138882
0.0139329
0.0139626
0.0139891
0.0140023
0.0140184
0.014013
0.0140101
0.013994
0.0139782
0.0139529
0.0139241
0.0138943
0.0138647
0.0138357
0.0138085
0.0137814
0.0137522
0.0137262
0.0136988
0.0136725
0.0136478
0.0136253
0.013604
0.0135822
0.0135618
0.0135413
0.0135194
0.0134987
0.0134739
0.0134512
0.0134245
0.0133977
0.0133687
0.0133452
0.0133178
0.0132908
0.0132621
0.013234
0.0132076
0.0131802
0.0131515
0.0131221
0.0130919
0.013065
0.0130382
0.0130114
0.012989
0.012962
0.0129389
0.0129169
0.0128946
0.0128757
0.0128527
0.0128298
0.0128096
0.0127905
0.0127725
0.0127611
0.0127484
0.0127358
0.0127245
0.0127165
0.0127086
0.0127024
0.0126971
0.0126923
0.0126882
0.0126872
0.012686
0.0126858
0.0126859
0.0126843
0.0126839
0.0126816
0.0126796
0.012676
0.0126727
0.0126687
0.0126648
0.0126598
0.0126558
0.0126523
0.0126487
0.0126458
0.0126453
0.0126448
0.0126431
0.0126405
0.0126376
0.0126371
0.0126336
0.01263
0.0126255
0.0126204
0.0126172
0.0126117
0.0126057
0.012601
0.0125959
0.0125934
0.0125862
0.0125805
0.0125773
0.0125735
0.0125683
0.0125588
0.0125536
0.0125442
0.0125347
0.0125258
0.0125137
0.0124993
0.012483
0.0124738
0.0124621
0.0124442
0.0124256
0.0124087
0.0124062
0.0123933
0.0123789
0.0123631
0.0123491
0.012336
0.0123346
0.0123221
0.0123022
0.012291
0.000538259
0.000537298
0.000537706
0.00053941
0.000543246
0.000549422
0.000557333
0.000567081
0.00057809
0.000590544
0.000604005
0.000618622
0.000634117
0.000650793
0.000668509
0.000687597
0.0007083
0.000730704
0.000755583
0.000783054
0.000813772
0.000848604
0.000887844
0.000933058
0.000984526
0.00104422
0.00111259
0.00119247
0.00128389
0.00139035
0.00151218
0.00165293
0.00181295
0.00199511
0.00219976
0.00242877
0.00268163
0.00295848
0.00325782
0.00357784
0.00391623
0.00426945
0.00463459
0.00500716
0.00538472
0.00576202
0.00613811
0.00650724
0.00686991
0.00722108
0.00756181
0.00788838
0.00820228
0.00850036
0.00878489
0.00905304
0.00930741
0.0095456
0.00977049
0.0099797
0.0101765
0.0103591
0.0105302
0.0106894
0.0108377
0.0109773
0.0111061
0.0112278
0.0113392
0.0114429
0.0115385
0.0116226
0.0117019
0.0117657
0.0118246
0.0118686
0.0119112
0.011936
0.011959
0.0119678
0.0119841
0.0119766
0.0119671
0.0119557
0.0119431
0.0119305
0.0119186
0.0119072
0.0118912
0.0118782
0.0118621
0.0118474
0.0118341
0.0118216
0.0118118
0.0118005
0.0117907
0.0117803
0.0117695
0.0117581
0.0117438
0.0117325
0.0117158
0.0116974
0.0116787
0.0116663
0.0116489
0.0116306
0.0116096
0.0115884
0.0115709
0.0115499
0.0115269
0.0115042
0.0114807
0.0114594
0.0114388
0.0114163
0.0113989
0.0113765
0.0113578
0.0113393
0.0113234
0.0113081
0.0112872
0.0112675
0.0112487
0.0112319
0.0112157