/*--------------------------------*- C++ -*----------------------------------*\
  =========                 |
  \\      /  F ield         | OpenFOAM: The Open Source CFD Toolbox
   \\    /   O peration     | Website:  https://openfoam.org
    \\  /    A nd           | Version:  12
     \\/     M anipulation  |
\*---------------------------------------------------------------------------*/
FoamFile
{
    format      ascii;
    class       volScalarField;
    location    "200";
    object      k;
}
// * * * * * * * * * * * * * * * * * * * * * * * * * * * * * * * * * * * * * //

dimensions      [0 2 -2 0 0 0 0];

internalField   nonuniform List<scalar> 
20000
(
0.00121539
0.000456547
0.000505708
0.000674824
0.000786241
0.000874125
0.000962353
0.00105479
0.00113219
0.00120301
0.00125068
0.00130261
0.00133571
0.00136898
0.00139715
0.00142295
0.00144263
0.00145965
0.00147326
0.00148557
0.00149488
0.00150262
0.00150877
0.00151358
0.00151771
0.00152034
0.00152231
0.00152347
0.00152382
0.00152365
0.00152316
0.00152207
0.00152058
0.00151884
0.00151674
0.00151442
0.001512
0.00150936
0.00150646
0.00150354
0.00150043
0.0014973
0.00149405
0.00149075
0.00148741
0.00148406
0.00148058
0.00147717
0.00147368
0.00147023
0.00146681
0.00146337
0.00145992
0.00145644
0.00145307
0.00144962
0.00144625
0.00144283
0.00143959
0.00143629
0.00143319
0.00143005
0.0014272
0.00142425
0.00142143
0.00141839
0.00141539
0.00141234
0.00140905
0.00140581
0.00140208
0.00139819
0.00139429
0.00139007
0.00138624
0.00138197
0.00137775
0.00137321
0.00136905
0.0013646
0.00136049
0.00135624
0.00135241
0.00134864
0.00134512
0.00134157
0.00133762
0.00133379
0.00132974
0.00132601
0.0013222
0.00131892
0.00131555
0.00131181
0.00130823
0.0013049
0.00130147
0.00129855
0.00129515
0.00129149
0.00128815
0.00128534
0.0012825
0.00127997
0.00127693
0.00127404
0.00127163
0.00126986
0.00126745
0.00126492
0.00126283
0.00126097
0.00125897
0.00125698
0.00125484
0.00125313
0.00125174
0.0012503
0.00124884
0.00124755
0.00124614
0.00124493
0.00124372
0.00124246
0.00124124
0.00124006
0.00123896
0.00123796
0.00123701
0.00123615
0.00123535
0.00123451
0.00123366
0.00123291
0.00123209
0.00123157
0.0012311
0.00123078
0.00123061
0.00123044
0.00123024
0.00122996
0.00122947
0.00122883
0.00122815
0.00122745
0.00122639
0.00122557
0.00122482
0.001224
0.00122274
0.00122171
0.00122099
0.0012199
0.00121877
0.00121768
0.0012166
0.00121566
0.00121408
0.00121288
0.00121161
0.00121044
0.00120896
0.00120764
0.00120612
0.00120429
0.00120269
0.00120234
0.00120194
0.00120127
0.00119987
0.00119788
0.00119601
0.0011953
0.00119421
0.00119211
0.00119057
0.00118899
0.00118719
0.00118649
0.0011856
0.00118466
0.00118363
0.00118278
0.00118133
0.00117979
0.00117849
0.00117713
0.00117593
0.00117421
0.00117318
0.00117262
0.00117199
0.00117046
0.00116948
0.00116807
0.00116652
0.0011647
0.00116428
0.00116284
0.0030952
0.0034205
0.00442793
0.00580002
0.00659255
0.00720858
0.00781123
0.00842395
0.00891486
0.0093508
0.00962745
0.00992785
0.0101073
0.0102865
0.0104338
0.0105665
0.0106618
0.0107419
0.0108021
0.0108554
0.0108916
0.0109195
0.0109388
0.0109509
0.01096
0.0109608
0.0109586
0.0109524
0.010942
0.0109292
0.0109151
0.010898
0.0108792
0.0108593
0.0108378
0.0108155
0.0107929
0.0107694
0.0107447
0.0107203
0.0106951
0.01067
0.0106445
0.010619
0.0105934
0.0105681
0.0105422
0.0105169
0.0104913
0.0104662
0.0104413
0.0104166
0.0103919
0.0103673
0.0103434
0.0103191
0.0102956
0.0102717
0.010249
0.0102262
0.0102045
0.0101827
0.0101627
0.0101423
0.0101229
0.0101023
0.0100819
0.0100614
0.0100395
0.0100181
0.00999395
0.00996882
0.00994356
0.00991634
0.00989156
0.00986438
0.00983754
0.00980874
0.00978219
0.009754
0.00972787
0.0097009
0.00967646
0.00965253
0.00963019
0.00960779
0.00958318
0.00955934
0.00953402
0.00951056
0.00948658
0.00946579
0.00944459
0.00942124
0.00939881
0.00937787
0.00935614
0.00933759
0.00931642
0.00929354
0.00927229
0.00925424
0.00923611
0.00921999
0.00920079
0.00918239
0.00916666
0.00915514
0.00913992
0.00912379
0.00911016
0.009098
0.00908512
0.00907228
0.00905837
0.00904709
0.00903787
0.00902852
0.00901887
0.00901033
0.009001
0.00899303
0.00898513
0.00897695
0.00896897
0.00896118
0.00895393
0.0089473
0.00894105
0.00893532
0.00892997
0.00892452
0.00891888
0.00891393
0.00890849
0.0089048
0.00890138
0.00889889
0.00889746
0.00889615
0.00889464
0.00889277
0.00888986
0.00888585
0.00888163
0.00887733
0.00887079
0.00886552
0.00886077
0.00885571
0.00884788
0.0088413
0.0088367
0.00882994
0.00882287
0.00881585
0.008809
0.00880322
0.00879357
0.00878588
0.00877773
0.00877053
0.0087614
0.00875323
0.00874389
0.00873266
0.00872253
0.00871978
0.00871692
0.00871264
0.0087042
0.00869226
0.0086804
0.00867561
0.00866896
0.00865601
0.00864625
0.00863611
0.00862464
0.00861976
0.00861388
0.00860785
0.00860132
0.00859591
0.00858671
0.00857702
0.00856895
0.00856038
0.00855272
0.00854184
0.00853515
0.00853127
0.00852732
0.00851768
0.00851115
0.00850213
0.00849264
0.00848131
0.00847793
0.00846948
0.00355493
0.00360064
0.00411377
0.00536255
0.00668483
0.00806821
0.00935451
0.0105341
0.0114753
0.0122838
0.0128602
0.0134056
0.0137946
0.0141438
0.0144333
0.0146878
0.0148827
0.0150479
0.0151795
0.0152946
0.0153821
0.0154543
0.0155111
0.0155554
0.0155921
0.0156166
0.0156338
0.0156442
0.0156479
0.0156471
0.015643
0.015634
0.0156216
0.0156071
0.0155896
0.0155704
0.0155501
0.015528
0.0155039
0.0154795
0.0154538
0.0154277
0.0154007
0.0153733
0.0153457
0.0153179
0.0152893
0.015261
0.0152323
0.0152038
0.0151755
0.0151472
0.0151188
0.0150903
0.0150626
0.0150343
0.0150067
0.0149786
0.0149517
0.0149246
0.0148988
0.0148728
0.0148489
0.0148245
0.0148013
0.0147769
0.0147526
0.0147285
0.0147025
0.0146774
0.0146487
0.014619
0.0145887
0.0145561
0.0145264
0.0144937
0.0144612
0.0144262
0.0143937
0.014359
0.0143264
0.0142928
0.0142623
0.0142326
0.0142048
0.0141768
0.0141461
0.0141164
0.0140844
0.0140549
0.0140246
0.0139983
0.0139715
0.013942
0.0139138
0.0138873
0.0138597
0.0138363
0.0138094
0.0137802
0.0137531
0.01373
0.0137068
0.0136862
0.0136616
0.013638
0.013618
0.0136033
0.0135835
0.0135629
0.0135455
0.0135298
0.0135131
0.0134964
0.0134782
0.013464
0.0134522
0.0134404
0.0134283
0.0134173
0.0134053
0.0133953
0.0133852
0.0133749
0.0133646
0.0133546
0.0133455
0.0133372
0.0133292
0.0133219
0.013315
0.013308
0.0133008
0.0132945
0.0132876
0.013283
0.0132786
0.0132755
0.013274
0.0132728
0.0132714
0.0132696
0.0132668
0.0132623
0.0132576
0.0132528
0.0132449
0.0132386
0.0132329
0.0132267
0.0132169
0.0132088
0.0132032
0.0131949
0.0131861
0.0131771
0.0131688
0.0131618
0.0131496
0.0131397
0.0131294
0.0131208
0.0131094
0.0130992
0.0130876
0.0130736
0.0130609
0.0130577
0.0130542
0.013049
0.0130385
0.0130234
0.0130083
0.0130026
0.0129944
0.0129782
0.0129657
0.0129522
0.0129377
0.0129312
0.0129233
0.0129158
0.0129076
0.0129005
0.0128882
0.0128759
0.0128657
0.0128546
0.0128442
0.0128304
0.012822
0.0128175
0.0128124
0.0128
0.0127912
0.0127802
0.0127673
0.0127538
0.0127465
0.012733
0.00376345
0.00368004
0.00376205
0.0041602
0.00503669
0.00623429
0.00753071
0.00891244
0.0101735
0.011339
0.0122824
0.0131479
0.0138481
0.0144609
0.0149769
0.0154263
0.0157882
0.0160987
0.0163564
0.0165813
0.0167645
0.016921
0.0170518
0.0171619
0.0172567
0.0173329
0.0173961
0.0174476
0.0174884
0.0175211
0.0175464
0.0175645
0.0175767
0.0175844
0.017587
0.0175862
0.0175828
0.0175759
0.0175657
0.0175541
0.01754
0.0175246
0.0175075
0.0174891
0.0174698
0.0174495
0.0174279
0.017406
0.0173833
0.0173601
0.0173369
0.0173132
0.017289
0.0172645
0.0172404
0.0172153
0.0171907
0.0171653
0.0171409
0.0171159
0.0170921
0.0170678
0.0170456
0.017023
0.0170015
0.0169789
0.0169561
0.0169338
0.0169092
0.016886
0.0168585
0.0168301
0.0168006
0.0167682
0.016739
0.0167063
0.0166734
0.0166376
0.0166043
0.016568
0.0165337
0.0164982
0.0164659
0.0164347
0.0164055
0.0163758
0.0163435
0.0163121
0.016278
0.0162466
0.0162142
0.0161863
0.0161576
0.0161262
0.0160963
0.0160679
0.0160384
0.0160135
0.0159845
0.0159532
0.0159239
0.015899
0.0158739
0.0158517
0.0158248
0.0157994
0.0157778
0.0157621
0.0157403
0.015718
0.0156993
0.0156821
0.0156637
0.0156453
0.0156251
0.01561
0.0155973
0.0155849
0.0155719
0.0155601
0.0155469
0.0155362
0.0155254
0.0155144
0.0155032
0.0154924
0.0154827
0.0154738
0.0154654
0.0154575
0.0154502
0.0154427
0.0154351
0.0154284
0.0154214
0.0154166
0.0154121
0.0154092
0.0154082
0.0154076
0.0154071
0.015406
0.0154041
0.0154004
0.0153963
0.015392
0.0153842
0.0153781
0.0153724
0.0153661
0.015356
0.0153478
0.0153423
0.0153339
0.0153246
0.0153151
0.0153068
0.0152998
0.0152869
0.0152764
0.0152655
0.0152569
0.0152451
0.0152346
0.0152224
0.0152077
0.0151946
0.0151918
0.0151883
0.0151832
0.0151721
0.0151563
0.0151402
0.0151347
0.0151261
0.0151089
0.0150952
0.01508
0.0150643
0.015057
0.015048
0.0150402
0.0150315
0.0150236
0.0150094
0.0149961
0.0149852
0.014973
0.0149608
0.0149459
0.0149373
0.014933
0.0149273
0.014914
0.0149038
0.0148924
0.014878
0.0148652
0.0148546
0.0148386
0.00382063
0.00375788
0.00369058
0.00373451
0.00395244
0.00444922
0.00519701
0.00620872
0.00733341
0.00859225
0.00977916
0.0109199
0.0119285
0.0128208
0.0135942
0.0142804
0.0148605
0.0153652
0.0157978
0.0161788
0.016501
0.0167826
0.017025
0.0172359
0.0174209
0.0175783
0.0177144
0.0178319
0.0179323
0.0180196
0.0180938
0.0181569
0.0182102
0.0182556
0.0182929
0.0183243
0.0183496
0.01837
0.018385
0.0183966
0.0184041
0.0184086
0.0184101
0.0184091
0.0184061
0.0184009
0.0183935
0.0183848
0.0183746
0.0183631
0.0183508
0.0183373
0.0183228
0.0183075
0.018292
0.018275
0.018258
0.0182397
0.0182218
0.0182032
0.0181852
0.0181664
0.0181494
0.018132
0.0181156
0.018098
0.01808
0.0180626
0.0180427
0.0180243
0.0180011
0.017977
0.0179511
0.0179215
0.0178952
0.0178649
0.017834
0.0177998
0.0177677
0.0177319
0.0176977
0.017662
0.0176297
0.0175986
0.0175695
0.0175397
0.0175074
0.0174762
0.0174416
0.0174101
0.0173774
0.0173493
0.0173201
0.0172886
0.0172588
0.01723
0.0172002
0.0171752
0.0171456
0.0171138
0.0170838
0.0170583
0.0170325
0.0170098
0.0169819
0.016956
0.0169339
0.016918
0.0168952
0.0168723
0.0168532
0.0168354
0.016816
0.0167966
0.0167752
0.01676
0.0167471
0.0167345
0.0167211
0.0167088
0.0166948
0.0166841
0.0166731
0.0166619
0.0166503
0.016639
0.0166293
0.0166202
0.0166118
0.0166038
0.0165964
0.0165889
0.0165813
0.0165748
0.0165681
0.0165636
0.0165593
0.0165564
0.0165565
0.0165567
0.0165573
0.0165573
0.0165568
0.0165546
0.0165516
0.0165483
0.0165413
0.0165359
0.0165308
0.0165249
0.0165151
0.0165075
0.0165025
0.0164945
0.0164856
0.0164761
0.0164685
0.0164621
0.0164493
0.0164387
0.0164278
0.01642
0.0164085
0.0163982
0.0163861
0.0163716
0.0163591
0.0163571
0.0163537
0.0163489
0.0163379
0.0163227
0.0163065
0.0163018
0.0162932
0.0162758
0.0162617
0.0162451
0.016229
0.0162213
0.0162113
0.0162036
0.0161949
0.0161863
0.0161705
0.0161567
0.0161457
0.0161326
0.016119
0.0161036
0.0160956
0.0160916
0.0160853
0.0160716
0.0160604
0.0160491
0.0160342
0.0160227
0.0160099
0.0159928
0.00384396
0.00383116
0.00376454
0.00368004
0.0036861
0.00376931
0.00398477
0.0044237
0.00502132
0.00584616
0.006795
0.00785355
0.00892833
0.00997709
0.0109524
0.0118576
0.0126696
0.0133977
0.0140392
0.0146127
0.0151129
0.0155553
0.0159438
0.0162862
0.016589
0.0168537
0.0170876
0.0172943
0.017476
0.0176378
0.0177798
0.0179055
0.0180164
0.0181147
0.0182009
0.0182776
0.0183444
0.0184037
0.0184549
0.0185001
0.0185389
0.0185726
0.0186014
0.0186257
0.0186464
0.0186636
0.0186773
0.0186882
0.0186966
0.0187025
0.0187067
0.0187088
0.0187088
0.0187076
0.0187051
0.0187004
0.0186952
0.0186879
0.0186804
0.0186716
0.0186628
0.0186528
0.0186441
0.0186348
0.0186263
0.0186165
0.018606
0.018596
0.0185834
0.018572
0.0185555
0.0185378
0.0185177
0.018493
0.0184714
0.0184451
0.0184179
0.0183867
0.0183571
0.0183232
0.0182902
0.0182555
0.0182241
0.0181942
0.0181661
0.018137
0.018106
0.0180761
0.0180422
0.0180116
0.0179797
0.0179524
0.0179236
0.0178931
0.0178645
0.0178363
0.0178072
0.017783
0.0177536
0.0177227
0.0176929
0.0176677
0.0176419
0.0176193
0.0175911
0.0175657
0.0175439
0.0175281
0.0175047
0.0174822
0.0174633
0.0174453
0.0174253
0.0174052
0.017383
0.0173682
0.0173555
0.0173428
0.0173293
0.0173167
0.0173021
0.0172918
0.0172808
0.0172697
0.0172578
0.0172461
0.0172367
0.0172276
0.0172196
0.0172116
0.0172045
0.0171971
0.0171899
0.0171837
0.0171775
0.0171734
0.0171697
0.0171674
0.0171679
0.0171691
0.0171717
0.0171728
0.0171735
0.017173
0.0171715
0.0171694
0.0171639
0.0171596
0.0171554
0.0171501
0.0171411
0.0171345
0.0171304
0.0171232
0.017115
0.017106
0.0170997
0.0170942
0.017082
0.0170716
0.0170609
0.0170545
0.0170437
0.0170339
0.0170223
0.0170085
0.0169973
0.0169964
0.016993
0.0169887
0.0169781
0.0169643
0.0169489
0.0169456
0.0169369
0.0169199
0.016906
0.0168882
0.0168724
0.0168642
0.0168531
0.0168461
0.0168376
0.016828
0.0168106
0.016797
0.0167861
0.0167722
0.0167572
0.0167417
0.0167351
0.0167312
0.0167242
0.0167102
0.0166981
0.016687
0.0166723
0.0166623
0.0166477
0.0166315
0.003844
0.00388407
0.00384173
0.00374996
0.00368651
0.00363986
0.00365558
0.00373515
0.00391502
0.00425487
0.00472712
0.00536241
0.00612711
0.00699758
0.00791528
0.00885293
0.00976531
0.0106355
0.0114417
0.0121875
0.0128628
0.0134743
0.0140242
0.014518
0.0149621
0.0153583
0.0157136
0.0160328
0.0163181
0.0165756
0.0168051
0.0170119
0.0171975
0.017365
0.017515
0.0176511
0.0177726
0.0178827
0.0179809
0.0180701
0.0181498
0.0182217
0.0182864
0.0183443
0.0183963
0.0184431
0.0184848
0.0185219
0.0185551
0.0185842
0.0186104
0.0186332
0.0186531
0.0186703
0.0186855
0.0186975
0.0187082
0.0187159
0.0187226
0.0187271
0.0187311
0.0187331
0.0187358
0.0187375
0.0187397
0.0187403
0.01874
0.0187396
0.0187367
0.0187343
0.018727
0.0187174
0.0187053
0.0186872
0.0186719
0.0186511
0.0186292
0.0186022
0.0185766
0.0185457
0.018515
0.0184822
0.0184527
0.0184246
0.0183984
0.0183708
0.018342
0.0183143
0.018282
0.0182533
0.018223
0.0181972
0.0181695
0.018141
0.0181145
0.0180876
0.0180601
0.0180375
0.0180091
0.0179799
0.0179513
0.017927
0.0179019
0.0178798
0.0178518
0.017828
0.017807
0.0177916
0.0177679
0.0177465
0.0177285
0.0177105
0.0176902
0.0176695
0.017647
0.0176334
0.0176209
0.0176082
0.0175946
0.0175817
0.0175666
0.0175571
0.0175462
0.0175353
0.0175232
0.0175112
0.0175023
0.0174933
0.017486
0.0174782
0.0174714
0.0174643
0.0174575
0.0174519
0.0174464
0.0174429
0.0174399
0.0174384
0.0174388
0.0174408
0.0174454
0.017448
0.0174506
0.0174511
0.0174514
0.0174509
0.0174473
0.0174447
0.0174415
0.0174368
0.0174292
0.0174241
0.0174207
0.0174147
0.0174076
0.0173997
0.0173951
0.0173907
0.0173795
0.0173694
0.0173594
0.0173547
0.017345
0.0173359
0.0173248
0.0173122
0.0173029
0.0173026
0.0172995
0.0172957
0.0172858
0.0172743
0.0172603
0.0172587
0.01725
0.0172342
0.0172208
0.0172022
0.0171875
0.0171788
0.0171667
0.0171608
0.0171524
0.0171415
0.0171224
0.0171096
0.0170993
0.0170844
0.0170678
0.0170529
0.0170483
0.017044
0.0170358
0.0170215
0.0170088
0.0169979
0.0169841
0.0169758
0.0169592
0.0169453
0.00383056
0.00390656
0.00388326
0.00382041
0.00374791
0.0036733
0.00362238
0.00359131
0.00360434
0.00366401
0.00380008
0.00404745
0.00439818
0.00487515
0.00546139
0.00615015
0.0069086
0.00771209
0.00852428
0.00932736
0.0100983
0.0108278
0.0115085
0.0121379
0.0127177
0.0132475
0.0137308
0.0141719
0.0145723
0.0149382
0.0152695
0.0155714
0.0158457
0.016096
0.0163234
0.0165318
0.0167205
0.0168935
0.0170506
0.0171947
0.0173259
0.0174463
0.0175565
0.0176569
0.0177489
0.0178334
0.0179105
0.017981
0.0180458
0.0181046
0.0181589
0.0182081
0.0182534
0.0182941
0.0183319
0.0183654
0.0183962
0.0184231
0.0184479
0.0184695
0.0184897
0.0185071
0.0185245
0.0185402
0.0185559
0.0185699
0.0185819
0.0185944
0.0186026
0.0186122
0.0186154
0.0186165
0.0186143
0.0186048
0.0185973
0.0185838
0.0185687
0.0185473
0.0185272
0.0185006
0.0184733
0.0184434
0.0184166
0.0183913
0.0183677
0.0183423
0.0183167
0.018292
0.018262
0.0182361
0.0182084
0.0181846
0.0181587
0.0181332
0.0181095
0.0180845
0.0180596
0.0180392
0.0180124
0.0179862
0.0179594
0.0179367
0.0179128
0.0178917
0.0178645
0.0178434
0.0178238
0.0178087
0.0177852
0.0177658
0.0177492
0.0177313
0.017711
0.0176901
0.0176677
0.0176561
0.017644
0.017631
0.0176175
0.0176042
0.0175888
0.0175806
0.0175697
0.0175591
0.0175467
0.0175345
0.0175264
0.0175176
0.0175112
0.0175035
0.0174972
0.0174904
0.0174842
0.0174794
0.0174746
0.0174718
0.0174697
0.0174688
0.017469
0.0174713
0.0174777
0.017482
0.0174866
0.0174885
0.0174907
0.0174922
0.0174905
0.0174899
0.0174877
0.017484
0.0174781
0.0174747
0.0174721
0.0174675
0.0174617
0.0174557
0.0174534
0.0174501
0.01744
0.0174306
0.017422
0.0174195
0.017411
0.0174023
0.0173919
0.0173811
0.0173743
0.0173739
0.0173716
0.017368
0.0173588
0.0173504
0.0173386
0.0173383
0.0173297
0.0173163
0.017304
0.0172851
0.0172723
0.017263
0.0172502
0.0172461
0.0172376
0.0172246
0.0172043
0.0171931
0.0171833
0.017167
0.0171488
0.0171353
0.0171344
0.0171275
0.0171181
0.0171034
0.0170902
0.0170796
0.0170675
0.0170613
0.0170429
0.0170317
0.00381065
0.00390562
0.003898
0.0038615
0.00380183
0.00373315
0.00366917
0.0036085
0.00356645
0.00353689
0.00354404
0.00358227
0.00367345
0.00384635
0.00409376
0.0044348
0.0048677
0.00539122
0.00598922
0.00664613
0.0073384
0.00804556
0.00874929
0.00943432
0.0100923
0.0107161
0.0113014
0.0118491
0.0123566
0.0128285
0.0132633
0.013665
0.0140347
0.0143759
0.0146895
0.0149796
0.0152453
0.015491
0.0157168
0.0159255
0.0161175
0.0162952
0.0164592
0.0166106
0.0167506
0.0168803
0.0170004
0.0171111
0.0172143
0.0173092
0.0173977
0.0174793
0.0175554
0.0176253
0.0176908
0.0177504
0.0178063
0.0178569
0.0179041
0.0179471
0.0179876
0.0180242
0.0180598
0.018093
0.0181253
0.0181559
0.0181832
0.0182112
0.0182333
0.018257
0.0182734
0.0182872
0.0182979
0.018299
0.0183012
0.0182963
0.01829
0.018276
0.0182633
0.0182425
0.0182199
0.018194
0.018171
0.0181494
0.0181292
0.0181069
0.0180857
0.0180646
0.0180378
0.0180158
0.0179914
0.0179701
0.0179467
0.0179253
0.017905
0.0178823
0.0178612
0.0178435
0.0178191
0.0177969
0.0177728
0.0177525
0.0177303
0.0177105
0.0176849
0.0176679
0.01765
0.0176352
0.0176123
0.0175963
0.0175812
0.0175637
0.0175437
0.0175227
0.0175017
0.0174928
0.0174811
0.0174675
0.0174544
0.0174406
0.0174252
0.0174188
0.0174077
0.0173975
0.0173845
0.0173722
0.0173651
0.0173566
0.0173513
0.0173437
0.0173381
0.0173315
0.0173261
0.0173225
0.0173185
0.0173165
0.0173149
0.0173147
0.0173145
0.0173166
0.0173244
0.0173303
0.017337
0.0173405
0.0173446
0.0173486
0.017349
0.0173508
0.0173495
0.017347
0.0173431
0.0173415
0.0173395
0.0173369
0.0173327
0.0173292
0.0173302
0.0173272
0.0173186
0.0173103
0.0173049
0.0173038
0.0172962
0.0172883
0.0172788
0.0172704
0.0172657
0.0172664
0.0172654
0.0172603
0.0172523
0.0172472
0.0172397
0.0172388
0.0172306
0.0172211
0.0172101
0.0171917
0.0171819
0.0171719
0.0171592
0.0171586
0.0171483
0.0171325
0.0171115
0.0171032
0.0170935
0.0170755
0.0170558
0.017045
0.0170459
0.0170373
0.0170262
0.017011
0.0169976
0.0169878
0.0169783
0.0169734
0.0169535
0.0169454
0.00379116
0.00388831
0.00389568
0.00387646
0.00383416
0.00377757
0.00372034
0.00365872
0.00360383
0.00355025
0.00351373
0.00348251
0.00348268
0.0035029
0.00355734
0.00366865
0.00383593
0.00406908
0.00437485
0.00475437
0.00520379
0.00571464
0.00627429
0.00686658
0.00747686
0.00809206
0.00869886
0.00929089
0.00985915
0.0104027
0.0109169
0.0114021
0.0118567
0.0122833
0.0126808
0.013053
0.0133985
0.0137209
0.0140203
0.0142994
0.0145587
0.0148003
0.0150252
0.0152345
0.0154294
0.0156112
0.0157809
0.0159385
0.0160865
0.0162238
0.0163525
0.0164723
0.0165849
0.0166893
0.0167877
0.0168786
0.0169644
0.0170433
0.0171175
0.0171861
0.017251
0.0173109
0.0173685
0.0174226
0.0174749
0.0175251
0.0175708
0.017617
0.0176559
0.0176963
0.0177284
0.0177574
0.0177819
0.0177957
0.0178115
0.0178171
0.0178232
0.017817
0.0178147
0.0178012
0.0177851
0.0177644
0.0177468
0.0177297
0.0177136
0.0176959
0.0176806
0.0176634
0.0176408
0.0176238
0.0176033
0.0175851
0.0175652
0.017549
0.0175322
0.0175126
0.0174967
0.0174819
0.0174608
0.0174441
0.0174232
0.0174061
0.0173862
0.0173682
0.0173452
0.0173337
0.0173179
0.0173032
0.0172818
0.0172706
0.017257
0.0172398
0.0172207
0.0172002
0.0171821
0.0171781
0.0171654
0.0171508
0.0171387
0.0171242
0.0171099
0.0171069
0.017094
0.0170845
0.0170706
0.0170582
0.0170521
0.0170439
0.0170401
0.0170324
0.0170277
0.0170213
0.0170168
0.0170148
0.0170124
0.0170115
0.0170091
0.0170093
0.0170085
0.0170107
0.0170189
0.0170265
0.0170352
0.0170405
0.0170463
0.0170521
0.0170546
0.0170602
0.0170595
0.0170586
0.0170573
0.0170578
0.0170557
0.0170556
0.017054
0.0170531
0.0170564
0.0170544
0.0170483
0.0170418
0.0170399
0.0170402
0.0170334
0.0170269
0.0170189
0.0170135
0.0170112
0.0170128
0.0170124
0.017006
0.017
0.016999
0.0169935
0.0169927
0.0169856
0.0169808
0.0169716
0.0169552
0.0169493
0.0169385
0.0169278
0.0169282
0.0169167
0.0168983
0.0168781
0.0168752
0.0168638
0.016843
0.0168229
0.016815
0.0168168
0.0168065
0.0167939
0.0167779
0.0167648
0.0167564
0.0167507
0.0167455
0.0167245
0.0167198
0.0037757
0.00385956
0.00388212
0.00387263
0.00384668
0.00380342
0.00375604
0.00370195
0.00365006
0.00359453
0.00354609
0.00349799
0.0034626
0.0034349
0.00342153
0.0034302
0.00345917
0.00352315
0.00363062
0.00378222
0.00398711
0.00424948
0.00457001
0.00494647
0.0053731
0.00584281
0.00634328
0.00686609
0.00739809
0.00793274
0.00846034
0.00897672
0.00947543
0.00995576
0.0104134
0.0108501
0.0112629
0.0116537
0.0120215
0.0123683
0.0126941
0.0130004
0.0132882
0.0135583
0.0138118
0.0140497
0.0142736
0.0144829
0.0146805
0.0148651
0.0150393
0.0152023
0.0153563
0.0155001
0.0156364
0.0157633
0.0158835
0.0159954
0.016101
0.0161994
0.016293
0.0163801
0.0164636
0.0165425
0.0166181
0.0166913
0.0167586
0.016826
0.0168849
0.0169445
0.0169954
0.017042
0.0170832
0.0171129
0.0171435
0.0171621
0.0171806
0.0171866
0.0171984
0.0171926
0.0171859
0.0171726
0.0171618
0.0171503
0.0171393
0.0171281
0.0171201
0.0171073
0.0170903
0.0170796
0.0170633
0.0170486
0.0170338
0.0170238
0.0170105
0.0169952
0.0169854
0.0169737
0.016957
0.0169471
0.0169305
0.0169174
0.0169001
0.0168847
0.0168662
0.0168628
0.0168473
0.0168326
0.0168148
0.0168107
0.0167964
0.0167798
0.0167623
0.0167431
0.0167309
0.0167304
0.0167168
0.0167015
0.0166922
0.0166769
0.0166659
0.0166646
0.0166497
0.016642
0.0166269
0.0166141
0.0166095
0.0166012
0.0166
0.0165913
0.0165872
0.0165811
0.0165798
0.0165794
0.0165754
0.0165765
0.0165752
0.0165731
0.0165744
0.0165751
0.0165829
0.0165922
0.0166028
0.01661
0.0166174
0.0166253
0.0166296
0.0166374
0.0166394
0.0166403
0.016642
0.0166424
0.0166419
0.0166449
0.0166452
0.0166463
0.0166529
0.0166521
0.0166502
0.0166476
0.0166453
0.0166495
0.0166433
0.0166392
0.016634
0.0166332
0.0166335
0.0166316
0.0166343
0.0166265
0.0166253
0.0166235
0.0166207
0.0166198
0.0166164
0.0166174
0.0166086
0.0165989
0.0165961
0.0165837
0.0165755
0.0165763
0.0165638
0.0165433
0.0165265
0.0165276
0.0165148
0.0164912
0.0164717
0.016469
0.0164689
0.0164571
0.016443
0.0164261
0.0164141
0.0164079
0.0164091
0.0163979
0.0163774
0.0163766
0.0037652
0.00382742
0.00385895
0.00385672
0.00384317
0.00381326
0.00377565
0.00373063
0.00368515
0.0036353
0.00358766
0.00353874
0.00349303
0.00345188
0.00341536
0.00338909
0.00336753
0.00336701
0.00337841
0.00340897
0.00347148
0.00356597
0.00369567
0.00386746
0.00408358
0.00434607
0.00465275
0.00500284
0.00538886
0.00580654
0.00624635
0.00670285
0.00716626
0.0076326
0.008094
0.00854842
0.00899044
0.00941901
0.00983116
0.0102267
0.0106046
0.0109649
0.0113076
0.011633
0.0119417
0.0122339
0.0125113
0.0127728
0.0130212
0.0132551
0.0134771
0.0136862
0.0138847
0.0140714
0.014249
0.0144156
0.014574
0.0147226
0.0148634
0.0149956
0.0151214
0.0152395
0.0153525
0.0154597
0.0155622
0.0156615
0.0157536
0.0158452
0.0159271
0.0160088
0.0160814
0.0161484
0.0162093
0.0162578
0.0163054
0.0163402
0.0163735
0.0163931
0.0164178
0.0164262
0.0164352
0.016431
0.0164289
0.0164213
0.0164168
0.0164178
0.0164176
0.0164072
0.016397
0.0163958
0.0163821
0.0163721
0.0163642
0.0163625
0.0163511
0.0163446
0.0163411
0.0163302
0.0163189
0.0163199
0.0163058
0.0162982
0.0162838
0.0162719
0.0162639
0.0162622
0.0162483
0.0162352
0.0162275
0.0162249
0.0162102
0.0161955
0.0161811
0.0161655
0.0161589
0.0161626
0.0161482
0.0161338
0.016129
0.0161129
0.0161094
0.0161056
0.0160889
0.0160877
0.0160689
0.0160544
0.0160525
0.0160431
0.0160435
0.0160339
0.0160316
0.0160255
0.0160254
0.0160266
0.0160249
0.0160229
0.0160255
0.0160219
0.016024
0.0160234
0.0160312
0.0160418
0.0160541
0.0160633
0.0160724
0.0160823
0.0160884
0.0160975
0.0161021
0.0161049
0.0161072
0.0161092
0.0161115
0.0161148
0.0161178
0.0161221
0.0161315
0.0161348
0.0161399
0.0161383
0.0161368
0.0161436
0.0161394
0.0161389
0.0161399
0.0161399
0.0161428
0.0161405
0.016145
0.0161377
0.0161384
0.0161363
0.0161353
0.0161337
0.0161316
0.0161411
0.0161341
0.0161318
0.0161316
0.0161201
0.0161153
0.0161167
0.0161031
0.0160823
0.016074
0.0160741
0.0160607
0.0160348
0.0160179
0.0160149
0.0160185
0.016004
0.0159884
0.0159709
0.0159621
0.0159586
0.0159623
0.0159472
0.0159299
0.0159307
0.00375869
0.00379757
0.00382983
0.00383366
0.00382762
0.00380973
0.00378127
0.00374518
0.0037068
0.0036641
0.00362094
0.00357632
0.00353137
0.00348872
0.00344564
0.00340834
0.00337276
0.00334492
0.00332404
0.00330911
0.00331095
0.00332302
0.00335152
0.00340556
0.00348347
0.00358905
0.00372631
0.0038991
0.00410666
0.00435144
0.00463032
0.00494295
0.00528299
0.00564795
0.00603044
0.00642691
0.00683052
0.00723769
0.00764326
0.0080444
0.00843803
0.00882202
0.00919484
0.00955526
0.00990271
0.0102362
0.0105568
0.0108624
0.0111558
0.0114346
0.0117016
0.0119549
0.0121971
0.0124266
0.012646
0.0128533
0.0130514
0.0132385
0.0134168
0.0135851
0.0137458
0.0138975
0.0140428
0.0141812
0.0143132
0.0144415
0.0145612
0.0146796
0.0147874
0.0148937
0.0149908
0.0150807
0.015164
0.0152343
0.0153017
0.0153557
0.015406
0.0154426
0.0154811
0.0155058
0.0155253
0.0155344
0.0155424
0.0155477
0.0155528
0.0155585
0.015574
0.0155721
0.0155677
0.015575
0.015565
0.0155664
0.0155614
0.0155681
0.0155633
0.0155618
0.0155638
0.0155602
0.0155547
0.0155623
0.0155541
0.0155583
0.0155443
0.0155375
0.015538
0.0155382
0.0155276
0.0155192
0.0155207
0.0155198
0.0155056
0.0154945
0.0154844
0.0154792
0.0154733
0.0154813
0.0154671
0.0154605
0.0154598
0.0154425
0.0154459
0.0154376
0.0154236
0.0154259
0.0154047
0.0153892
0.0153907
0.0153822
0.0153796
0.0153709
0.0153665
0.0153649
0.0153601
0.015363
0.0153681
0.0153667
0.0153682
0.0153662
0.0153681
0.0153659
0.015374
0.0153857
0.0153995
0.0154109
0.0154217
0.0154337
0.015442
0.015452
0.015459
0.0154637
0.0154672
0.0154703
0.0154743
0.0154793
0.0154852
0.0154911
0.0155027
0.01551
0.0155217
0.0155232
0.0155245
0.0155284
0.0155325
0.0155382
0.0155403
0.0155427
0.0155487
0.0155488
0.0155548
0.0155512
0.0155504
0.0155489
0.0155478
0.0155459
0.0155442
0.0155594
0.0155597
0.0155608
0.0155644
0.0155593
0.0155604
0.0155535
0.0155435
0.0155262
0.0155247
0.0155258
0.0155114
0.0154849
0.0154759
0.015472
0.0154739
0.0154576
0.0154412
0.0154248
0.0154244
0.0154206
0.0154221
0.0154041
0.01539
0.0153931
0.00375413
0.00377376
0.00379919
0.00380679
0.00380453
0.00379516
0.00377558
0.00374746
0.003716
0.00368038
0.00364283
0.00360365
0.00356273
0.00352262
0.00348114
0.00344207
0.0034031
0.00336671
0.0033347
0.00330508
0.00328166
0.00326424
0.00325271
0.0032545
0.00326453
0.00328763
0.00333006
0.00339142
0.00347262
0.00357905
0.00371112
0.00387198
0.00406055
0.0042787
0.00452398
0.00479575
0.00509009
0.00540455
0.0057346
0.00607679
0.00642705
0.00678181
0.00713786
0.00749225
0.0078431
0.00818742
0.00852543
0.00885354
0.00917353
0.00948211
0.00978133
0.0100687
0.0103463
0.010612
0.010868
0.0111123
0.0113471
0.0115708
0.0117853
0.0119891
0.0121846
0.0123705
0.0125488
0.0127195
0.0128824
0.013041
0.0131899
0.0133369
0.0134725
0.0136052
0.0137288
0.013844
0.0139517
0.0140466
0.0141359
0.0142122
0.0142817
0.0143384
0.0143928
0.0144357
0.0144701
0.0144951
0.0145153
0.0145335
0.0145506
0.0145642
0.0145836
0.0145937
0.0146002
0.0146115
0.0146148
0.0146208
0.0146256
0.0146349
0.0146392
0.0146435
0.0146516
0.0146568
0.0146608
0.0146724
0.0146767
0.014692
0.0146891
0.0146883
0.0146892
0.0146934
0.0146943
0.0146941
0.0146956
0.0146989
0.0146908
0.0146874
0.0146808
0.0146798
0.0146764
0.0146901
0.0146803
0.0146798
0.0146834
0.0146747
0.0146786
0.0146652
0.0146632
0.0146638
0.0146412
0.0146268
0.014626
0.0146167
0.0146109
0.0146103
0.0146075
0.0146019
0.0145961
0.0146012
0.0146069
0.0146048
0.01461
0.0146111
0.0146135
0.0146114
0.0146186
0.0146317
0.0146469
0.0146606
0.0146734
0.0146875
0.0146982
0.0147094
0.0147184
0.014725
0.0147299
0.014734
0.0147394
0.0147459
0.0147546
0.0147618
0.0147751
0.0147866
0.0147982
0.0148046
0.0148089
0.0148164
0.0148236
0.0148327
0.0148386
0.0148456
0.0148534
0.0148676
0.0148697
0.0148716
0.014865
0.0148708
0.0148682
0.014866
0.014864
0.0148762
0.0148847
0.0148918
0.0149001
0.0149019
0.0149093
0.0149009
0.0148941
0.0148831
0.0148867
0.0148889
0.0148736
0.0148496
0.0148457
0.0148386
0.0148453
0.0148266
0.0148104
0.0148036
0.0148018
0.0147982
0.0147984
0.0147773
0.0147666
0.0147718
0.00375061
0.00375655
0.00377091
0.00377849
0.00377796
0.00377301
0.00376072
0.00373978
0.00371451
0.00368536
0.00365356
0.00361987
0.00358394
0.00354777
0.00351004
0.0034728
0.00343545
0.00339842
0.00336341
0.00332907
0.00329735
0.00326936
0.00324368
0.00322304
0.0032079
0.00319675
0.00319728
0.00320382
0.0032197
0.00325087
0.00329569
0.0033565
0.00343456
0.00353318
0.00365274
0.00379497
0.00395974
0.00414781
0.00435796
0.00458935
0.00483979
0.00510717
0.00538884
0.00568173
0.00598383
0.00629098
0.00660272
0.00691412
0.00722595
0.00753371
0.00783842
0.00813667
0.00842955
0.0087142
0.00899215
0.00926088
0.00952192
0.00977337
0.0100167
0.0102502
0.0104757
0.0106919
0.0109001
0.0111011
0.0112932
0.0114809
0.0116584
0.0118334
0.011997
0.0121565
0.012307
0.0124485
0.0125817
0.0127025
0.0128155
0.012916
0.0130069
0.0130859
0.0131588
0.0132214
0.0132732
0.0133163
0.0133518
0.0133839
0.0134143
0.0134394
0.013466
0.0134879
0.0135049
0.0135237
0.0135384
0.0135529
0.0135661
0.0135815