/*--------------------------------*- C++ -*----------------------------------*\
  =========                 |
  \\      /  F ield         | OpenFOAM: The Open Source CFD Toolbox
   \\    /   O peration     | Website:  https://openfoam.org
    \\  /    A nd           | Version:  12
     \\/     M anipulation  |
\*---------------------------------------------------------------------------*/
FoamFile
{
    format      ascii;
    class       volScalarField;
    location    "200";
    object      nut;
}
// * * * * * * * * * * * * * * * * * * * * * * * * * * * * * * * * * * * * * //

dimensions      [0 2 -1 0 0 0 0];

internalField   nonuniform List<scalar> 
20000
(
1.76054e-06
6.61327e-07
7.32547e-07
9.7746e-07
1.13894e-06
1.26621e-06
1.39398e-06
1.52792e-06
1.63995e-06
1.74266e-06
1.81164e-06
1.88689e-06
1.93483e-06
1.98301e-06
2.02385e-06
2.0612e-06
2.0897e-06
2.11434e-06
2.13405e-06
2.15188e-06
2.16537e-06
2.1766e-06
2.18551e-06
2.19247e-06
2.19846e-06
2.20226e-06
2.20512e-06
2.20681e-06
2.2073e-06
2.20706e-06
2.20634e-06
2.20477e-06
2.2026e-06
2.20008e-06
2.19705e-06
2.19369e-06
2.19019e-06
2.18636e-06
2.18215e-06
2.17792e-06
2.17342e-06
2.16888e-06
2.16416e-06
2.15938e-06
2.15454e-06
2.14968e-06
2.14464e-06
2.1397e-06
2.13465e-06
2.12964e-06
2.12467e-06
2.11969e-06
2.11469e-06
2.10967e-06
2.10478e-06
2.09977e-06
2.0949e-06
2.08993e-06
2.0852e-06
2.0804e-06
2.07588e-06
2.07128e-06
2.06711e-06
2.06284e-06
2.05877e-06
2.05444e-06
2.05013e-06
2.0458e-06
2.04111e-06
2.03655e-06
2.0313e-06
2.0258e-06
2.02023e-06
2.01416e-06
2.00868e-06
2.0026e-06
1.99657e-06
1.99005e-06
1.98403e-06
1.97759e-06
1.97162e-06
1.96543e-06
1.95983e-06
1.95436e-06
1.94928e-06
1.94418e-06
1.93854e-06
1.93308e-06
1.92723e-06
1.92183e-06
1.91629e-06
1.91152e-06
1.90668e-06
1.90132e-06
1.89617e-06
1.89136e-06
1.88635e-06
1.88213e-06
1.87728e-06
1.87199e-06
1.86706e-06
1.86292e-06
1.85876e-06
1.8551e-06
1.85067e-06
1.84641e-06
1.84279e-06
1.84022e-06
1.83674e-06
1.83301e-06
1.82987e-06
1.82711e-06
1.82416e-06
1.82121e-06
1.81799e-06
1.8154e-06
1.81334e-06
1.81123e-06
1.80904e-06
1.8071e-06
1.80497e-06
1.80317e-06
1.80139e-06
1.79954e-06
1.79773e-06
1.79595e-06
1.7943e-06
1.79281e-06
1.79141e-06
1.79012e-06
1.78893e-06
1.78772e-06
1.78645e-06
1.78536e-06
1.78414e-06
1.78333e-06
1.7826e-06
1.78208e-06
1.78183e-06
1.78163e-06
1.78136e-06
1.78107e-06
1.78051e-06
1.77966e-06
1.77877e-06
1.77785e-06
1.77639e-06
1.77521e-06
1.77419e-06
1.77308e-06
1.7713e-06
1.7698e-06
1.76881e-06
1.7673e-06
1.7657e-06
1.76409e-06
1.76256e-06
1.76131e-06
1.75912e-06
1.75736e-06
1.75551e-06
1.75392e-06
1.75187e-06
1.75005e-06
1.74796e-06
1.74539e-06
1.74306e-06
1.74248e-06
1.7419e-06
1.741e-06
1.73911e-06
1.73638e-06
1.7336e-06
1.73255e-06
1.73109e-06
1.72811e-06
1.72584e-06
1.72348e-06
1.7208e-06
1.71969e-06
1.71835e-06
1.71699e-06
1.71551e-06
1.71429e-06
1.71215e-06
1.70992e-06
1.70808e-06
1.70612e-06
1.70434e-06
1.70182e-06
1.70028e-06
1.69946e-06
1.6986e-06
1.69642e-06
1.69489e-06
1.69287e-06
1.69071e-06
1.68818e-06
1.68755e-06
1.68543e-06
3.08549e-05
2.66404e-05
2.94445e-05
3.91674e-05
4.70162e-05
5.46474e-05
6.26843e-05
7.10137e-05
7.83419e-05
8.51822e-05
9.0404e-05
9.59496e-05
9.99151e-05
0.000103961
0.000107526
0.000110813
0.000113586
0.000116094
0.000118294
0.000120329
0.000122083
0.000123669
0.000125083
0.000126354
0.000127521
0.000128535
0.000129461
0.00013029
0.000131022
0.000131683
0.000132289
0.000132821
0.000133296
0.000133727
0.000134108
0.000134448
0.000134762
0.000135035
0.000135273
0.000135489
0.000135675
0.000135843
0.000135986
0.000136112
0.000136221
0.000136315
0.000136387
0.000136453
0.000136502
0.000136542
0.000136573
0.000136595
0.000136604
0.000136606
0.000136604
0.000136589
0.000136572
0.000136542
0.000136517
0.000136481
0.000136451
0.000136411
0.000136386
0.00013635
0.000136319
0.000136271
0.000136219
0.000136164
0.000136088
0.000136015
0.000135903
0.000135776
0.00013564
0.000135474
0.000135333
0.000135157
0.000134974
0.000134762
0.000134568
0.000134347
0.000134141
0.000133918
0.000133722
0.000133528
0.000133351
0.000133166
0.00013295
0.000132743
0.000132511
0.000132301
0.000132083
0.000131905
0.000131718
0.000131502
0.000131301
0.000131113
0.000130914
0.000130756
0.000130559
0.000130337
0.000130137
0.000129976
0.000129813
0.000129674
0.000129489
0.000129313
0.000129174
0.000129089
0.000128946
0.000128791
0.000128669
0.000128566
0.000128448
0.000128328
0.000128191
0.000128091
0.000128022
0.000127948
0.000127866
0.000127798
0.000127713
0.00012765
0.000127586
0.000127516
0.000127448
0.000127378
0.000127318
0.000127264
0.000127217
0.000127173
0.000127134
0.000127092
0.000127048
0.000127013
0.000126973
0.000126954
0.000126939
0.000126936
0.000126948
0.000126963
0.000126973
0.000126982
0.000126981
0.000126961
0.000126939
0.000126915
0.00012686
0.00012682
0.000126789
0.000126751
0.000126674
0.000126617
0.000126587
0.000126529
0.000126465
0.000126398
0.000126339
0.000126296
0.000126199
0.000126127
0.000126048
0.000125988
0.000125902
0.000125829
0.00012574
0.000125623
0.000125526
0.000125529
0.000125523
0.000125496
0.000125412
0.000125281
0.000125153
0.000125125
0.000125066
0.000124922
0.000124821
0.000124705
0.000124577
0.000124539
0.000124482
0.000124424
0.000124363
0.000124313
0.000124201
0.000124092
0.000124009
0.00012392
0.000123831
0.000123706
0.000123642
0.000123628
0.000123594
0.000123496
0.000123421
0.000123335
0.000123227
0.000123128
0.000123101
0.000122992
0.000184605
6.36411e-05
4.74264e-05
5.26678e-05
6.47312e-05
8.11301e-05
9.9007e-05
0.000117428
0.00013427
0.000150398
0.000163991
0.000177873
0.000189164
0.000200385
0.000210631
0.000220241
0.000228691
0.000236575
0.000243724
0.000250424
0.000256426
0.000262001
0.000267118
0.000271853
0.000276272
0.0002803
0.000284039
0.000287503
0.000290699
0.000293677
0.000296469
0.00029904
0.00030143
0.000303674
0.000305754
0.000307703
0.000309547
0.000311258
0.00031285
0.000314358
0.000315762
0.000317089
0.000318331
0.0003195
0.000320604
0.000321643
0.00032261
0.000323534
0.000324395
0.000325215
0.000325989
0.000326722
0.000327404
0.00032805
0.000328669
0.000329239
0.000329783
0.000330285
0.000330775
0.000331229
0.000331674
0.000332087
0.000332512
0.000332906
0.000333296
0.000333638
0.000333961
0.000334269
0.000334518
0.00033477
0.000334915
0.000335029
0.000335096
0.000335092
0.000335126
0.000335066
0.000334967
0.000334794
0.000334642
0.000334409
0.000334191
0.000333927
0.00033371
0.000333492
0.0003333
0.000333073
0.000332775
0.000332488
0.000332139
0.00033184
0.000331519
0.000331291
0.000331029
0.0003307
0.00033041
0.000330144
0.000329852
0.000329654
0.00032935
0.000328991
0.000328688
0.00032847
0.000328242
0.000328062
0.000327768
0.0003275
0.000327323
0.00032726
0.00032704
0.000326805
0.000326651
0.000326528
0.000326363
0.000326188
0.000325972
0.000325859
0.000325803
0.000325733
0.000325646
0.000325581
0.000325473
0.000325417
0.000325351
0.00032527
0.000325188
0.000325103
0.000325041
0.000324992
0.000324952
0.000324921
0.000324897
0.000324864
0.00032483
0.000324813
0.000324791
0.000324819
0.000324851
0.000324912
0.000325011
0.000325118
0.000325208
0.000325293
0.000325362
0.000325382
0.0003254
0.000325405
0.000325335
0.000325306
0.000325293
0.000325257
0.000325136
0.000325067
0.00032506
0.000324981
0.000324891
0.000324792
0.000324722
0.00032468
0.000324508
0.000324399
0.000324278
0.000324205
0.000324065
0.000323955
0.000323807
0.000323596
0.000323442
0.000323537
0.000323592
0.000323586
0.00032344
0.000323181
0.00032295
0.00032296
0.000322876
0.000322595
0.000322409
0.000322179
0.000321938
0.000321903
0.00032181
0.00032173
0.000321636
0.000321558
0.000321322
0.000321114
0.000320958
0.000320793
0.000320607
0.000320368
0.000320274
0.000320316
0.000320271
0.000320099
0.000319956
0.000319832
0.000319588
0.000319464
0.00031938
0.000319193
0.00074131
0.000184454
0.000105249
7.55452e-05
7.64369e-05
8.80679e-05
0.000104079
0.000124312
0.000145391
0.000167343
0.00018766
0.000208501
0.00022742
0.000245875
0.000263208
0.000279625
0.000294297
0.000308308
0.000321197
0.000333384
0.000344448
0.000354882
0.000364555
0.000373619
0.000382139
0.000390013
0.000397398
0.000404314
0.000410776
0.000416865
0.000422575
0.00042793
0.000432966
0.000437726
0.00044219
0.000446414
0.000450438
0.000454209
0.000457765
0.000461155
0.000464351
0.000467394
0.000470272
0.000473009
0.000475619
0.000478096
0.000480437
0.000482683
0.00048481
0.000486846
0.00048879
0.000490647
0.000492401
0.000494086
0.000495702
0.000497224
0.000498688
0.000500066
0.000501406
0.000502675
0.000503912
0.000505085
0.000506261
0.00050738
0.000508477
0.00050949
0.00051046
0.000511395
0.000512228
0.000513052
0.000513691
0.000514269
0.000514747
0.000515094
0.000515487
0.000515709
0.000515852
0.000515858
0.000515879
0.000515751
0.000515629
0.000515422
0.000515283
0.000515138
0.000515022
0.00051484
0.000514548
0.000514267
0.00051388
0.000513571
0.000513225
0.000513025
0.000512761
0.0005124
0.000512102
0.000511833
0.000511522
0.000511358
0.000511015
0.000510593
0.000510253
0.000510044
0.000509815
0.000509657
0.000509311
0.000509017
0.000508863
0.000508882
0.000508636
0.000508379
0.000508248
0.000508153
0.000507983
0.000507796
0.000507538
0.000507463
0.000507464
0.000507441
0.000507385
0.000507355
0.000507255
0.000507243
0.000507211
0.000507153
0.000507084
0.000507011
0.000506979
0.000506962
0.000506963
0.000506971
0.000506994
0.000507002
0.000507011
0.000507043
0.000507077
0.000507183
0.000507295
0.000507444
0.000507672
0.00050791
0.000508116
0.00050831
0.000508491
0.000508599
0.00050869
0.000508756
0.000508703
0.000508718
0.000508752
0.000508745
0.000508606
0.00050856
0.000508606
0.000508534
0.000508445
0.000508338
0.000508292
0.00050828
0.000508058
0.000507934
0.000507792
0.000507741
0.000507573
0.000507455
0.000507272
0.000506992
0.000506817
0.000507046
0.000507182
0.000507223
0.000507039
0.000506691
0.000506382
0.000506465
0.000506378
0.000505976
0.000505716
0.000505371
0.000505033
0.000505015
0.000504892
0.000504814
0.000504706
0.000504607
0.000504239
0.000503951
0.000503738
0.000503502
0.000503219
0.000502879
0.000502792
0.000502913
0.000502863
0.000502629
0.000502423
0.000502274
0.000501908
0.000501813
0.000501629
0.000501534
0.00150221
0.000491566
0.000263037
0.000158124
0.000115969
0.000103203
0.000105646
0.000117572
0.000134637
0.00015707
0.000180581
0.000205647
0.000230084
0.000253962
0.000276851
0.00029912
0.000319772
0.000339527
0.000358164
0.000375971
0.000392284
0.000408007
0.000422682
0.000436626
0.00044979
0.000462053
0.000473667
0.000484616
0.000494919
0.000504704
0.000513895
0.000522595
0.000530831
0.000538652
0.000546042
0.000553081
0.000559759
0.000566107
0.000572119
0.000577872
0.000583325
0.000588541
0.000593496
0.000598235
0.000602773
0.000607094
0.00061121
0.000615165
0.000618937
0.000622558
0.000626029
0.000629359
0.000632523
0.00063558
0.000638515
0.0006413
0.000643989
0.000646538
0.000649015
0.000651376
0.000653676
0.000655871
0.000658054
0.000660146
0.0006622
0.000664125
0.000665978
0.000667763
0.000669406
0.000671008
0.000672346
0.000673581
0.000674649
0.000675499
0.000676403
0.000677044
0.000677562
0.000677862
0.000678161
0.000678228
0.000678283
0.000678209
0.000678222
0.000678223
0.000678253
0.000678179
0.000677967
0.000677767
0.000677403
0.000677147
0.000676836
0.000676719
0.000676502
0.000676175
0.00067594
0.000675721
0.000675447
0.000675374
0.000675042
0.00067462
0.000674295
0.000674142
0.000673956
0.000673863
0.000673502
0.000673239
0.000673156
0.000673298
0.000673058
0.000672824
0.00067276
0.000672723
0.000672572
0.000672396
0.000672112
0.000672115
0.000672204
0.000672251
0.000672243
0.000672262
0.000672178
0.000672241
0.000672265
0.000672249
0.000672206
0.000672153
0.000672175
0.000672204
0.000672267
0.000672329
0.000672419
0.000672483
0.000672559
0.000672657
0.000672769
0.00067297
0.000673178
0.000673402
0.000673805
0.00067419
0.000674532
0.000674861
0.000675188
0.000675446
0.000675639
0.000675794
0.000675795
0.000675885
0.00067599
0.000676027
0.000675896
0.000675904
0.000676022
0.00067598
0.000675914
0.000675813
0.000675825
0.000675866
0.000675618
0.000675485
0.000675333
0.000675336
0.000675162
0.000675058
0.000674851
0.000674528
0.000674374
0.000674771
0.000674981
0.000675076
0.000674869
0.000674487
0.000674124
0.000674318
0.000674236
0.000673728
0.000673403
0.00067293
0.000672516
0.000672518
0.000672348
0.000672299
0.000672193
0.000672058
0.000671537
0.000671189
0.000670944
0.000670634
0.00067024
0.00066981
0.000669781
0.000669984
0.00066992
0.000669606
0.000669333
0.000669157
0.000668688
0.000668663
0.000668328
0.000668454
0.00202513
0.00100022
0.000587675
0.000356471
0.000242704
0.00017687
0.000145602
0.000134435
0.000134977
0.000145418
0.000161845
0.000183393
0.000207564
0.000233366
0.000259473
0.000285837
0.000311525
0.000336571
0.000360552
0.000383805
0.000405645
0.00042663
0.000446475
0.0004655
0.000483413
0.000500253
0.000516413
0.000531719
0.000546228
0.000560099
0.000573146
0.000585613
0.000597476
0.000608786
0.000619534
0.000629828
0.000639586
0.000648945
0.000657849
0.000666395
0.000674523
0.000682326
0.000689777
0.000696905
0.000703743
0.000710299
0.000716568
0.000722595
0.000728375
0.000733928
0.00073927
0.000744405
0.000749303
0.000754061
0.000758624
0.000762975
0.000767187
0.000771198
0.000775094
0.00077882
0.000782452
0.000785929
0.000789372
0.000792686
0.000795941
0.000799017
0.000801991
0.000804847
0.000807531
0.000810118
0.000812372
0.000814459
0.000816311
0.000817823
0.0008194
0.000820609
0.00082165
0.000822372
0.000823072
0.000823439
0.000823761
0.000823902
0.000824151
0.000824381
0.000824636
0.000824735
0.000824688
0.000824652
0.000824378
0.000824248
0.000824039
0.000824061
0.000823936
0.000823717
0.00082362
0.000823504
0.000823333
0.000823409
0.000823137
0.000822788
0.000822536
0.000822491
0.000822395
0.000822407
0.000822065
0.000821907
0.000821951
0.000822252
0.000822044
0.000821891
0.000821948
0.000821995
0.000821883
0.000821733
0.000821438
0.000821576
0.000821782
0.000821916
0.000821973
0.000822048
0.000821982
0.000822158
0.000822257
0.000822303
0.000822293
0.000822265
0.000822364
0.000822452
0.000822603
0.000822729
0.0008229
0.000823033
0.000823189
0.000823368
0.000823578
0.000823883
0.000824204
0.000824545
0.000825071
0.000825621
0.000826205
0.000826686
0.000827146
0.000827577
0.000827919
0.000828191
0.000828305
0.000828504
0.000828703
0.000828796
0.000828704
0.000828806
0.000829009
0.000829022
0.000829001
0.000828929
0.000829046
0.00082916
0.000828914
0.000828772
0.000828622
0.000828722
0.00082857
0.000828493
0.000828269
0.000827938
0.000827868
0.00082846
0.00082872
0.000828877
0.00082865
0.000828312
0.00082793
0.000828297
0.00082821
0.000827623
0.000827255
0.000826634
0.000826188
0.00082621
0.00082597
0.000825995
0.000825907
0.000825705
0.000824995
0.000824631
0.000824389
0.000823995
0.000823459
0.000822966
0.000823085
0.000823347
0.000823237
0.00082282
0.000822467
0.000822258
0.000821719
0.000821819
0.000821271
0.000821713
0.00226806
0.00154681
0.00104127
0.000696562
0.000494697
0.000354018
0.000271906
0.000215484
0.000184313
0.000169876
0.000166793
0.000173435
0.000187022
0.000206221
0.000228939
0.000254315
0.000280926
0.000308265
0.00033544
0.000362507
0.000388722
0.000414243
0.000438788
0.00046249
0.000485233
0.00050685
0.000527631
0.000547516
0.000566537
0.000584793
0.000601959
0.000618574
0.00063442
0.000649577
0.00066406
0.000677982
0.000691179
0.000703892
0.000716022
0.0007277
0.000738837
0.000749573
0.000759855
0.00076971
0.000779189
0.000788312
0.000797071
0.000805497
0.000813614
0.00082142
0.000828949
0.000836194
0.000843164
0.000849885
0.000856388
0.000862599
0.000868628
0.000874386
0.000879979
0.000885343
0.000890573
0.00089559
0.000900546
0.000905326
0.000910026
0.00091449
0.000918831
0.000922977
0.000926945
0.000930725
0.000934132
0.000937263
0.000940122
0.000942483
0.000944908
0.000946846
0.000948582
0.000949874
0.000951123
0.000951919
0.000952612
0.000953066
0.000953646
0.000954203
0.000954772
0.000955121
0.000955341
0.000955563
0.000955452
0.000955534
0.000955504
0.000955723
0.000955737
0.000955712
0.000955833
0.000955872
0.000955881
0.000956171
0.000956008
0.000955822
0.000955707
0.000955828
0.000955872
0.000956031
0.000955747
0.000955792
0.000956026
0.000956517
0.000956362
0.000956375
0.000956614
0.000956768
0.000956716
0.000956601
0.000956317
0.000956675
0.00095703
0.000957259
0.000957395
0.000957527
0.000957479
0.000957825
0.000958014
0.000958143
0.000958163
0.000958165
0.000958375
0.000958531
0.000958802
0.000958996
0.000959263
0.000959467
0.000959717
0.00095999
0.000960311
0.000960729
0.000961189
0.000961666
0.000962262
0.000962971
0.000963824
0.000964508
0.000965194
0.000965749
0.000966295
0.000966741
0.000967026
0.000967384
0.000967694
0.000967853
0.000967843
0.00096809
0.000968382
0.000968477
0.000968529
0.000968533
0.000968817
0.000969016
0.0009688
0.000968647
0.000968525
0.000968785
0.000968685
0.000968631
0.000968396
0.000968102
0.000968191
0.00096895
0.000969289
0.000969506
0.000969259
0.000969056
0.000968716
0.000969319
0.000969192
0.00096859
0.000968213
0.000967433
0.000967031
0.000967069
0.000966733
0.00096692
0.000966849
0.000966519
0.000965583
0.000965276
0.000965074
0.000964573
0.000963853
0.000963363
0.000963741
0.000964002
0.000963791
0.000963243
0.000962794
0.000962555
0.000962001
0.000962282
0.000961456
0.00096231
0.00235556
0.00196819
0.00149963
0.0011175
0.000854538
0.000645663
0.000506318
0.000397022
0.000323147
0.000267738
0.000232103
0.000212141
0.00020327
0.000204416
0.000213146
0.000228232
0.000247944
0.000271235
0.000296656
0.000323655
0.000351229
0.000379029
0.000406579
0.000433692
0.00046024
0.000485939
0.000510843
0.000534941
0.000558142
0.000580624
0.00060206
0.000622759
0.000642652
0.000661778
0.000680192
0.000697919
0.000714734
0.000731102
0.000746749
0.000761859
0.000776305
0.00079032
0.00080374
0.00081664
0.000829092
0.000841102
0.000852676
0.00086381
0.000874587
0.000884953
0.000894973
0.000904627
0.000913967
0.000922953
0.000931685
0.000940037
0.00094816
0.00095593
0.000963478
0.000970733
0.000977814
0.000984616
0.000991325
0.000997805
0.00100418
0.0010103
0.00101619
0.00102194
0.00102731
0.00103259
0.0010373
0.00104173
0.00104582
0.00104924
0.00105268
0.00105555
0.00105818
0.00106019
0.00106218
0.00106355
0.00106474
0.00106561
0.00106664
0.00106763
0.00106861
0.0010693
0.00106992
0.00107049
0.00107062
0.00107103
0.00107126
0.00107173
0.00107193
0.0010722
0.00107262
0.00107286
0.00107315
0.00107372
0.00107372
0.0010738
0.00107389
0.00107425
0.00107449
0.00107483
0.00107465
0.00107503
0.00107553
0.00107622
0.00107614
0.00107644
0.00107693
0.00107721
0.00107723
0.00107716
0.00107693
0.00107765
0.00107817
0.00107848
0.00107871
0.0010789
0.00107887
0.00107948
0.00107975
0.00107999
0.00108002
0.00108006
0.00108042
0.00108066
0.00108109
0.00108135
0.00108173
0.00108199
0.00108235
0.00108274
0.00108317
0.00108372
0.00108434
0.00108494
0.00108558
0.00108639
0.00108754
0.00108846
0.00108942
0.00109015
0.00109094
0.00109163
0.0010921
0.0010927
0.00109313
0.00109338
0.00109351
0.00109395
0.00109433
0.00109454
0.00109469
0.00109486
0.00109539
0.00109569
0.00109551
0.00109536
0.00109535
0.00109584
0.0010958
0.00109575
0.00109551
0.00109533
0.00109567
0.00109651
0.00109699
0.00109724
0.00109698
0.00109702
0.00109682
0.00109763
0.00109745
0.00109696
0.00109662
0.00109569
0.00109545
0.00109549
0.00109507
0.00109552
0.00109545
0.00109488
0.0010937
0.00109359
0.00109344
0.00109277
0.00109182
0.00109146
0.00109235
0.00109234
0.00109197
0.00109126
0.00109071
0.00109046
0.00108999
0.00109051
0.00108937
0.00109066
0.00237521
0.00222313
0.0018723
0.00152569
0.00125147
0.00100912
0.000828837
0.000675544
0.000559812
0.000463239
0.000390926
0.000332952
0.000291178
0.00026414
0.000247885
0.000241705
0.000243844
0.000253066
0.000267868
0.000287229
0.000309852
0.000334837
0.000361331
0.000388671
0.000416458
0.000444232
0.000471729
0.000498847
0.000525328
0.000551293
0.000576435
0.00060087
0.000624531
0.000647465
0.000669613
0.00069113
0.000711724
0.00073173
0.000750977
0.000769639
0.00078754
0.000805028
0.000821702
0.000837831
0.000853481
0.00086859
0.000883205
0.000897268
0.000910962
0.000924117
0.000936863
0.000949174
0.000961133
0.000972639
0.000983851
0.00099459
0.00100507
0.00101511
0.00102487
0.00103427
0.00104345
0.00105229
0.001061
0.00106941
0.00107769
0.00108571
0.00109339
0.00110097
0.00110798
0.00111497
0.00112123
0.00112719
0.00113282
0.00113749
0.00114217
0.0011461
0.00114985
0.00115278
0.00115575
0.00115787
0.00115969
0.00116111
0.00116271
0.00116425
0.00116574
0.00116688
0.00116806
0.00116909
0.00116955
0.00117041
0.00117099
0.00117176
0.00117222
0.00117291
0.00117368
0.00117417
0.00117486
0.00117576
0.00117598
0.00117648
0.00117685
0.00117751
0.00117798
0.00117855
0.00117854
0.00117947
0.00118026
0.00118113
0.00118116
0.00118195
0.00118271
0.00118311
0.00118324
0.00118322
0.00118318
0.00118441
0.0011851
0.00118544
0.0011858
0.00118602
0.00118607
0.00118705
0.00118738
0.00118774
0.00118775
0.00118783
0.0011884
0.00118873
0.00118937
0.00118968
0.00119018
0.00119049
0.00119097
0.00119153
0.00119207
0.00119276
0.00119349
0.00119425
0.00119488
0.00119572
0.00119715
0.00119833
0.00119961
0.00120056
0.00120161
0.00120265
0.00120336
0.00120429
0.00120481
0.0012052
0.00120554
0.00120621
0.00120666
0.00120706
0.00120735
0.0012078
0.00120875
0.00120903
0.00120893
0.00120882
0.0012092
0.00120982
0.00120983
0.00120977
0.00120956
0.00120959
0.00121017
0.00121124
0.00121194
0.00121197
0.00121176
0.00121214
0.00121236
0.00121313
0.00121291
0.00121274
0.00121245
0.00121144
0.00121154
0.00121151
0.0012111
0.00121209
0.00121178
0.00121082
0.00120945
0.00120973
0.00120961
0.00120866
0.00120746
0.00120746
0.00120869
0.00120845
0.00120785
0.00120694
0.00120629
0.0012061
0.00120589
0.00120657
0.00120507
0.00120683
0.00237153
0.00234747
0.00213016
0.00185973
0.00161616
0.00137794
0.001185
0.00101001
0.000866991
0.000740528
0.000637287
0.000546033
0.000474003
0.000412462
0.000363781
0.000328651
0.000304104
0.000289243
0.000283202
0.000284782
0.000292834
0.00030633
0.000324181
0.000345351
0.000369033
0.000394474
0.000421001
0.00044825
0.000475705
0.000503275
0.000530579
0.000557561
0.000584028
0.000610013
0.000635317
0.00066012
0.000684122
0.000707534
0.000730199
0.000752284
0.000773598
0.000794406
0.000814493
0.000833937
0.000852819
0.000871114
0.000888891
0.000906017
0.00092281
0.00093888
0.000954519
0.000969687
0.000984454
0.000998677
0.00101258
0.0010259
0.00103897
0.00105148
0.00106366
0.00107542
0.00108692
0.001098
0.00110891
0.00111947
0.00112984
0.00113996
0.00114963
0.00115925
0.00116812
0.00117703
0.00118509
0.00119277
0.00119997
0.00120611
0.00121243
0.00121759
0.00122288
0.00122676
0.00123108
0.00123409
0.00123674
0.00123882
0.00124116
0.00124334
0.00124544
0.0012472
0.00124916
0.00125069
0.00125161
0.00125308
0.00125406
0.00125518
0.001256
0.00125728
0.0012584
0.00125917
0.00126046
0.00126168
0.0012622
0.00126331
0.00126401
0.00126506
0.0012658
0.00126662
0.00126689
0.00126862
0.00126973
0.0012707
0.00127094
0.00127246
0.00127349
0.00127398
0.00127425
0.0012743
0.00127471
0.00127678
0.00127745
0.00127774
0.00127831
0.00127852
0.00127877
0.00128041
0.00128057
0.0012811
0.00128101
0.00128113
0.00128195
0.00128238
0.00128332
0.00128364
0.00128429
0.00128463
0.00128524
0.00128604
0.00128678
0.00128765
0.00128828
0.00128914
0.00128972
0.00129062
0.00129219
0.00129369
0.00129532
0.00129655
0.00129788
0.00129921
0.0013002
0.00130168
0.00130228
0.00130287
0.00130354
0.00130449
0.00130491
0.00130563
0.00130623
0.00130697
0.00130826
0.0013086
0.00130872
0.00130873
0.00130959
0.00131038
0.00131036
0.00131041
0.00131031
0.00131067
0.00131155
0.00131281
0.00131364
0.00131346
0.00131344
0.00131432
0.00131469
0.00131546
0.00131528
0.00131563
0.00131542
0.00131454
0.00131512
0.00131495
0.00131481
0.00131604
0.00131555
0.00131412
0.00131276
0.00131388
0.0013135
0.00131206
0.00131071
0.0013112
0.00131266
0.00131217
0.00131129
0.00131013
0.00130942
0.00130944
0.00130971
0.00131033
0.00130845
0.00131072
0.00236339
0.00239039
0.00228482
0.00209849
0.00190947
0.00170369
0.00152202
0.00134842
0.00119779
0.00105823
0.000937227
0.00082634
0.000730865
0.000644752
0.00057015
0.000506514
0.00045182
0.000408252
0.000375209
0.000350907
0.000335408
0.000327939
0.000327503
0.000333227
0.00034426
0.000359677
0.000378552
0.000400214
0.000423842
0.00044901
0.000475114
0.000501883
0.000528878
0.000556032
0.000582968
0.000609775
0.000636122
0.000662095
0.000687496
0.000712436
0.000736729
0.000760516
0.000783695
0.000806253
0.000828234
0.000849615
0.000870486
0.000890672
0.000910466
0.000929578
0.00094821
0.000966271
0.000983926
0.00100097
0.00101768
0.0010337
0.00104953
0.00106463
0.00107939
0.0010937
0.00110768
0.00112118
0.00113446
0.00114734
0.00115997
0.00117237
0.00118419
0.00119605
0.00120697
0.00121797
0.00122805
0.00123766
0.00124669
0.00125455
0.00126258
0.00126922
0.00127594
0.00128123
0.00128736
0.00129123
0.00129506
0.00129798
0.00130122
0.00130413
0.00130692
0.00130956
0.00131253
0.00131458
0.00131614
0.0013184
0.00131981
0.00132129
0.00132267
0.00132468
0.00132612
0.00132728
0.00132929
0.00133079
0.00133173
0.00133367
0.00133479
0.00133633
0.0013373
0.00133844
0.00133927
0.00134222
0.00134333
0.00134428
0.00134503
0.00134769
0.00134862
0.00134917
0.00134964
0.00134987
0.0013512
0.00135402
0.0013546
0.00135486
0.00135589
0.00135603
0.00135684
0.00135892
0.00135882
0.00135972
0.00135947
0.00135955
0.00136071
0.00136119
0.00136262
0.00136279
0.00136356
0.00136392
0.00136503
0.00136607
0.00136652
0.0013677
0.00136848
0.00136899
0.00136992
0.0013706
0.0013722
0.00137402
0.00137602
0.00137759
0.00137922
0.00138091
0.00138218
0.00138405
0.00138505
0.00138591
0.00138701
0.00138792
0.00138858
0.00138975
0.00139056
0.00139155
0.00139336
0.00139379
0.00139445
0.00139495
0.00139565
0.00139702
0.00139694
0.00139723
0.00139745
0.00139846
0.00139966
0.00140037
0.00140176
0.00140129
0.00140199
0.00140262
0.00140327
0.00140398
0.00140428
0.00140542
0.00140505
0.00140505
0.00140603
0.00140547
0.00140569
0.00140706
0.00140638
0.00140448
0.00140356
0.0014054
0.00140474
0.00140269
0.00140135
0.0014028
0.00140402
0.00140322
0.00140203
0.0014006
0.00139998
0.00140036
0.00140174
0.00140129
0.00139933
0.00140209
0.00235738
0.00239397
0.00236147
0.00224945
0.00211964
0.0019618
0.00180782
0.00165258
0.00151018
0.00137348
0.00124936
0.00113242
0.0010257
0.000927246
0.000837036
0.00075549
0.000679568
0.000614677
0.000555631
0.00050429
0.000462963
0.000429838
0.000404406
0.000386872
0.000376729
0.000373136
0.000375483
0.000383098
0.000395113
0.000410904
0.000429653
0.000450879
0.000473848
0.000498283
0.000523583
0.000549627
0.000575973
0.000602543
0.000629038
0.000655448
0.000681561
0.000707379
0.000732812
0.000757801
0.00078233
0.000806337
0.000829918
0.000852866
0.000875427
0.000897356
0.000918836
0.000939705
0.000960173
0.000980012
0.000999495
0.00101829
0.00103679
0.00105463
0.00107206
0.00108896
0.00110551
0.00112154
0.00113728
0.00115261
0.00116759
0.00118242
0.0011965
0.00121073
0.00122386
0.0012371
0.0012494
0.00126111
0.00127216
0.00128201
0.00129186
0.00130024
0.00130851
0.0013153
0.00132291
0.00132849
0.00133428
0.00133822
0.00134248
0.00134576
0.00134933
0.00135371
0.00135775
0.00135994
0.00136228
0.00136584
0.00136733
0.00136929
0.00137151
0.00137457
0.00137597
0.00137824
0.00138096
0.00138226
0.00138374
0.00138717
0.00138837
0.00139057
0.00139175
0.00139324
0.00139564
0.00139876
0.00139995
0.00140107
0.00140341
0.00140632
0.00140707
0.00140785
0.00140872
0.00140944
0.00141175
0.00141545
0.00141589
0.00141631
0.00141814
0.00141816
0.00142026
0.00142203
0.00142165
0.00142371
0.0014228
0.00142261
0.00142435
0.00142469
0.00142652
0.00142649
0.00142754
0.00142787
0.00142919
0.00143048
0.00143126
0.00143186
0.00143328
0.00143345
0.00143451
0.00143495
0.00143662
0.00143873
0.00144112
0.00144309
0.00144504
0.00144715
0.00144875
0.00145087
0.00145232
0.00145346
0.00145463
0.00145579
0.0014569
0.0014581
0.00145932
0.00146078
0.00146305
0.00146409
0.00146584
0.00146633
0.00146704
0.0014688
0.00146887
0.00146965
0.00147083
0.00147186
0.00147341
0.00147398
0.00147571
0.00147522
0.00147622
0.00147666
0.00147746
0.00147799
0.00147838
0.00148094
0.00148065
0.00148179
0.00148304
0.00148246
0.00148319
0.00148468
0.00148371
0.00148159
0.0014821
0.00148379
0.00148291
0.00148022
0.00147923
0.00148077
0.00148266
0.00148127
0.00147973
0.00147808
0.00147798
0.00147891
0.00148071
0.00147935
0.00147787
0.00148065
0.00235431
0.00238346
0.00238871
0.00233308
0.00225375
0.00214665
0.00202858
0.00190184
0.00177873
0.00165611
0.00154
0.00142806
0.00132204
0.00122199
0.00112645
0.00103773
0.000953121
0.000875132
0.000802162
0.000733694
0.000673373
0.000617539
0.000568196
0.000527089
0.000492907
0.000465251
0.000444796
0.000430997
0.000423358
0.00042147
0.000424696
0.000432564
0.000444274
0.000459409
0.000477224
0.00049736
0.00051921
0.000542485
0.000566725
0.000591734
0.000617194
0.000642955
0.000668832
0.000694698
0.00072046
0.000745971
0.0007713
0.000796189
0.000820836
0.000844975
0.000868791
0.000892059
0.000914983
0.000937327
0.000959337
0.000980714
0.00100175
0.00102219
0.0010422
0.00106165
0.00108073
0.00109929
0.00111749
0.0011353
0.00115267
0.00116992
0.00118637
0.00120299
0.00121846
0.001234
0.00124862
0.00126258
0.00127573
0.00128781
0.00129963
0.00131002
0.0013199
0.00132853
0.00133751
0.00134492
0.00135161
0.00135703
0.00136239
0.00136729
0.00137203
0.00137682
0.00138315
0.00138636
0.00138921
0.00139388
0.00139553
0.00139906
0.00140135
0.0014055
0.00140757
0.00141023
0.00141343
0.00141556
0.00141755
0.00142178
0.00142352
0.00142745
0.00142825
0.00143032
0.00143396
0.00143716
0.00143859
0.00144034
0.00144412
0.00144727
0.00144783
0.00144907
0.00145056
0.00145303
0.00145542
0.00146003
0.00146045
0.00146227
0.00146482
0.00146457
0.00146796
0.00146888
0.00146892
0.00147167
0.00147019
0.00146978
0.0014723
0.00147284
0.00147427
0.0014742
0.00147485
0.00147597
0.00147641
0.00147797
0.00148
0.00148061
0.0014817
0.00148206