/*--------------------------------*- C++ -*----------------------------------*\
  =========                 |
  \\      /  F ield         | OpenFOAM: The Open Source CFD Toolbox
   \\    /   O peration     | Website:  https://openfoam.org
    \\  /    A nd           | Version:  12
     \\/     M anipulation  |
\*---------------------------------------------------------------------------*/
FoamFile
{
    format      ascii;
    class       volVectorField;
    location    "200";
    object      U;
}
// * * * * * * * * * * * * * * * * * * * * * * * * * * * * * * * * * * * * * //

dimensions      [0 1 -1 0 0 0 0];

internalField   nonuniform List<vector> 
20000
(
(0.696546 -0.0953482 0)
(0.391225 -0.00674946 0)
(0.255427 0.000249513 0)
(0.201814 0.000182769 0)
(0.179414 0.000130997 0)
(0.16587 7.45215e-05 0)
(0.156873 1.48662e-05 0)
(0.150827 -6.55727e-06 0)
(0.146233 -1.40849e-05 0)
(0.14271 -8.86359e-06 0)
(0.139523 -8.24967e-06 0)
(0.137102 -7.74997e-06 0)
(0.134761 -2.79235e-06 0)
(0.132855 -6.36531e-06 0)
(0.131168 -6.15725e-06 0)
(0.129712 -4.638e-06 0)
(0.128343 -2.90241e-06 0)
(0.127118 -1.31198e-06 0)
(0.125952 -1.78868e-07 0)
(0.124899 1.0033e-07 0)
(0.123903 1.36588e-06 0)
(0.122968 2.24755e-06 0)
(0.122084 2.80368e-06 0)
(0.121244 3.12103e-06 0)
(0.120467 3.28643e-06 0)
(0.119713 4.1355e-06 0)
(0.119001 4.17521e-06 0)
(0.118314 4.76911e-06 0)
(0.117658 4.77656e-06 0)
(0.117028 5.10991e-06 0)
(0.116427 5.04861e-06 0)
(0.115844 5.40603e-06 0)
(0.115283 5.38671e-06 0)
(0.114744 5.47109e-06 0)
(0.114221 5.60616e-06 0)
(0.113714 5.61766e-06 0)
(0.113227 5.48305e-06 0)
(0.112757 5.63289e-06 0)
(0.112296 5.60898e-06 0)
(0.111856 5.55559e-06 0)
(0.111423 5.64594e-06 0)
(0.111006 5.45895e-06 0)
(0.110599 5.56776e-06 0)
(0.110206 5.35274e-06 0)
(0.109823 5.42988e-06 0)
(0.109451 5.31274e-06 0)
(0.109086 5.36896e-06 0)
(0.108734 5.18444e-06 0)
(0.10839 5.2504e-06 0)
(0.108054 5.04964e-06 0)
(0.107729 5.05544e-06 0)
(0.107411 4.95707e-06 0)
(0.107101 4.96762e-06 0)
(0.106797 4.82978e-06 0)
(0.106503 4.81702e-06 0)
(0.106213 4.75992e-06 0)
(0.105932 4.72236e-06 0)
(0.105655 4.68585e-06 0)
(0.10539 4.51709e-06 0)
(0.105127 4.53767e-06 0)
(0.104878 4.2548e-06 0)
(0.104631 4.21656e-06 0)
(0.1044 3.84518e-06 0)
(0.104169 3.86439e-06 0)
(0.103948 3.72505e-06 0)
(0.103723 3.77854e-06 0)
(0.103503 3.66192e-06 0)
(0.103281 3.86476e-06 0)
(0.103056 3.87423e-06 0)
(0.102829 4.24037e-06 0)
(0.102595 4.49447e-06 0)
(0.10235 4.97435e-06 0)
(0.102109 4.93362e-06 0)
(0.101857 5.38629e-06 0)
(0.101616 5.4041e-06 0)
(0.101367 5.77778e-06 0)
(0.101127 5.6825e-06 0)
(0.100877 5.92648e-06 0)
(0.100642 6.02088e-06 0)
(0.100407 5.90495e-06 0)
(0.100191 5.50695e-06 0)
(0.0999751 5.38895e-06 0)
(0.099776 5.09867e-06 0)
(0.0995798 4.99622e-06 0)
(0.0993953 4.61399e-06 0)
(0.0992204 4.57228e-06 0)
(0.0990395 4.75826e-06 0)
(0.0988645 4.58947e-06 0)
(0.0986893 4.47147e-06 0)
(0.0985207 4.39603e-06 0)
(0.098352 4.15837e-06 0)
(0.0981971 3.91772e-06 0)
(0.0980461 3.89567e-06 0)
(0.0978876 4.11964e-06 0)
(0.0977301 3.83484e-06 0)
(0.0975833 3.72842e-06 0)
(0.0974309 3.71115e-06 0)
(0.0972924 3.50358e-06 0)
(0.0971514 3.79683e-06 0)
(0.0970038 3.92695e-06 0)
(0.0968573 3.54377e-06 0)
(0.0967244 3.34533e-06 0)
(0.0965936 3.09108e-06 0)
(0.0964756 3.03041e-06 0)
(0.0963474 3.38255e-06 0)
(0.0962203 3.34885e-06 0)
(0.0960964 2.88251e-06 0)
(0.0959959 2.62935e-06 0)
(0.0958964 2.64344e-06 0)
(0.095786 2.62108e-06 0)
(0.09568 2.57837e-06 0)
(0.095586 2.31584e-06 0)
(0.0954919 2.2769e-06 0)
(0.0954017 2.4373e-06 0)
(0.0953083 2.16569e-06 0)
(0.0952129 2.43714e-06 0)
(0.0951293 1.47876e-06 0)
(0.0950499 1.72465e-06 0)
(0.0949651 2.01999e-06 0)
(0.0948897 1.77665e-06 0)
(0.0948109 2.204e-06 0)
(0.0947352 1.8472e-06 0)
(0.0946689 1.5863e-06 0)
(0.0946017 1.59168e-06 0)
(0.094538 1.24885e-06 0)
(0.0944732 1.72369e-06 0)
(0.094406 1.8293e-06 0)
(0.0943428 1.81276e-06 0)
(0.0942841 1.43578e-06 0)
(0.094231 1.19613e-06 0)
(0.0941835 1.15338e-06 0)
(0.0941392 9.40027e-07 0)
(0.094093 1.0606e-06 0)
(0.0940505 7.63768e-07 0)
(0.0940044 8.05271e-07 0)
(0.0939647 6.04951e-07 0)
(0.0939288 2.1656e-07 0)
(0.093894 1.7583e-07 0)
(0.0938651 1.10507e-07 0)
(0.0938343 2.51919e-07 0)
(0.0938008 2.78526e-07 0)
(0.093766 4.39644e-07 0)
(0.0937259 5.95286e-07 0)
(0.0936841 5.56653e-07 0)
(0.0936367 6.8786e-07 0)
(0.0935894 1.03146e-06 0)
(0.0935374 1.10638e-06 0)
(0.0934882 1.14382e-06 0)
(0.0934433 8.24203e-07 0)
(0.0934022 1.08734e-06 0)
(0.0933503 1.35591e-06 0)
(0.0932981 1.42917e-06 0)
(0.0932521 1.21003e-06 0)
(0.093198 1.347e-06 0)
(0.0931461 1.2199e-06 0)
(0.0930973 1.20839e-06 0)
(0.0930396 1.33269e-06 0)
(0.0929891 1.26671e-06 0)
(0.09293 1.34074e-06 0)
(0.0928783 1.056e-06 0)
(0.0928211 1.35437e-06 0)
(0.092761 1.58796e-06 0)
(0.0926953 1.44842e-06 0)
(0.0926393 1.2627e-06 0)
(0.0925764 1.54923e-06 0)
(0.0925053 1.90671e-06 0)
(0.0924315 1.28349e-06 0)
(0.0923833 8.169e-07 0)
(0.0923417 6.82197e-07 0)
(0.0923018 1.20626e-06 0)
(0.0922495 1.69787e-06 0)
(0.0921876 1.64304e-06 0)
(0.0921123 1.46348e-06 0)
(0.0920596 1.02255e-06 0)
(0.0920088 1.56719e-06 0)
(0.0919253 2.47164e-06 0)
(0.0918559 1.89626e-06 0)
(0.0917955 1.95943e-06 0)
(0.0917165 2.09071e-06 0)
(0.0916682 1.21728e-06 0)
(0.0916245 9.74623e-07 0)
(0.0915758 1.36691e-06 0)
(0.0915251 1.19766e-06 0)
(0.0914858 1.13032e-06 0)
(0.0914388 1.55482e-06 0)
(0.091374 1.92695e-06 0)
(0.091317 1.38648e-06 0)
(0.0912609 1.41541e-06 0)
(0.0912223 1.33629e-06 0)
(0.0911525 1.90329e-06 0)
(0.091096 1.25742e-06 0)
(0.091039 1.13373e-06 0)
(0.0910119 6.74149e-07 0)
(0.0909462 1.53074e-06 0)
(0.0909074 1.14027e-06 0)
(0.0908268 2.30467e-06 0)
(0.0907943 2.68133e-07 0)
(0.0907111 1.96966e-06 0)
(0.0907645 -5.0511e-06 0)
(0.0908537 3.56992e-07 0)
(0.971307 0.0731487 0)
(0.83259 0.0463967 0)
(0.67141 0.0180088 0)
(0.562242 0.00770681 0)
(0.499345 0.00400643 0)
(0.458855 0.00249295 0)
(0.430579 0.00167199 0)
(0.40998 0.00121821 0)
(0.393942 0.000938708 0)
(0.381192 0.000776124 0)
(0.370333 0.000648687 0)
(0.361512 0.000548419 0)
(0.353688 0.000483803 0)
(0.347072 0.000411227 0)
(0.341271 0.000358933 0)
(0.336209 0.000321904 0)
(0.331587 0.00029279 0)
(0.327472 0.000268605 0)
(0.323669 0.000248382 0)
(0.320232 0.000227883 0)
(0.317041 0.000213678 0)
(0.314093 0.000200539 0)
(0.311346 0.000188904 0)
(0.308771 0.000177096 0)
(0.306395 0.00016627 0)
(0.304137 0.00015933 0)
(0.302018 0.000150984 0)
(0.300003 0.000144915 0)
(0.2981 0.000137698 0)
(0.29629 0.000132181 0)
(0.294573 0.000126199 0)
(0.29293 0.000121933 0)
(0.29136 0.000116866 0)
(0.289862 0.00011249 0)
(0.288425 0.000108793 0)
(0.287042 0.000104998 0)
(0.285718 0.000100819 0)
(0.284447 9.79483e-05 0)
(0.283215 9.46756e-05 0)
(0.282038 9.15147e-05 0)
(0.280894 8.90959e-05 0)
(0.279795 8.59175e-05 0)
(0.278729 8.37607e-05 0)
(0.277702 8.07829e-05 0)
(0.276707 7.87615e-05 0)
(0.275746 7.64661e-05 0)
(0.274808 7.46968e-05 0)
(0.273904 7.22352e-05 0)
(0.273025 7.07027e-05 0)
(0.272172 6.83525e-05 0)
(0.271347 6.67119e-05 0)
(0.270543 6.49463e-05 0)
(0.269762 6.35868e-05 0)
(0.269 6.17552e-05 0)
(0.268263 6.03996e-05 0)
(0.26754 5.8903e-05 0)
(0.266843 5.75252e-05 0)
(0.266157 5.60775e-05 0)
(0.2655 5.43352e-05 0)
(0.264853 5.30254e-05 0)
(0.264238 5.09708e-05 0)
(0.263631 4.9532e-05 0)
(0.263058 4.74248e-05 0)
(0.262489 4.66858e-05 0)
(0.261942 4.57023e-05 0)
(0.261391 4.55427e-05 0)
(0.260853 4.4934e-05 0)
(0.260314 4.55753e-05 0)
(0.259772 4.58265e-05 0)
(0.259226 4.70262e-05 0)
(0.258674 4.81781e-05 0)
(0.258106 4.95518e-05 0)
(0.257548 4.94802e-05 0)
(0.256971 5.03313e-05 0)
(0.256423 4.97844e-05 0)
(0.255862 5.01379e-05 0)
(0.255326 4.94449e-05 0)
(0.254774 4.92771e-05 0)
(0.254258 4.81501e-05 0)
(0.253743 4.63074e-05 0)
(0.253271 4.38543e-05 0)
(0.252801 4.23689e-05 0)
(0.252366 4.03543e-05 0)
(0.251938 3.91132e-05 0)
(0.251535 3.67431e-05 0)
(0.251152 3.60326e-05 0)
(0.25076 3.63534e-05 0)
(0.250382 3.53795e-05 0)
(0.250004 3.4643e-05 0)
(0.249639 3.40426e-05 0)
(0.249274 3.27403e-05 0)
(0.248933 3.12082e-05 0)
(0.248601 3.10353e-05 0)
(0.248258 3.19181e-05 0)
(0.247917 3.06212e-05 0)
(0.247595 2.99322e-05 0)
(0.247264 2.9584e-05 0)
(0.246957 2.82709e-05 0)
(0.246648 2.89773e-05 0)
(0.246331 2.96058e-05 0)
(0.246014 2.80697e-05 0)
(0.245722 2.67445e-05 0)
(0.245435 2.52689e-05 0)
(0.24517 2.46682e-05 0)
(0.244891 2.56416e-05 0)
(0.244617 2.5452e-05 0)
(0.244348 2.31094e-05 0)
(0.244121 2.07678e-05 0)
(0.2439 2.10229e-05 0)
(0.243658 2.15465e-05 0)
(0.243425 2.05975e-05 0)
(0.243214 1.91215e-05 0)
(0.243004 1.85144e-05 0)
(0.242804 1.87341e-05 0)
(0.242598 1.84153e-05 0)
(0.24239 1.89665e-05 0)
(0.242201 1.57923e-05 0)
(0.24202 1.62472e-05 0)
(0.241832 1.66322e-05 0)
(0.241661 1.52902e-05 0)
(0.241488 1.62567e-05 0)
(0.241323 1.4691e-05 0)
(0.241174 1.35861e-05 0)
(0.241024 1.35196e-05 0)
(0.24088 1.23878e-05 0)
(0.240735 1.35573e-05 0)
(0.240588 1.36535e-05 0)
(0.24045 1.30992e-05 0)
(0.24032 1.16043e-05 0)
(0.240201 1.02983e-05 0)
(0.240092 9.72397e-06 0)
(0.239989 9.06704e-06 0)
(0.239882 9.37693e-06 0)
(0.239782 8.65715e-06 0)
(0.239674 8.70706e-06 0)
(0.239578 7.76304e-06 0)
(0.239488 6.69873e-06 0)
(0.239398 6.29952e-06 0)
(0.239321 5.85575e-06 0)
(0.239241 6.49384e-06 0)
(0.239157 6.78178e-06 0)
(0.239071 7.56417e-06 0)
(0.238976 8.27269e-06 0)
(0.238879 8.56057e-06 0)
(0.238771 9.15003e-06 0)
(0.238664 9.91297e-06 0)
(0.238551 1.00792e-05 0)
(0.238442 9.88281e-06 0)
(0.238341 8.63477e-06 0)
(0.238246 9.38853e-06 0)
(0.238133 1.06248e-05 0)
(0.238019 1.07015e-05 0)
(0.237916 1.0285e-05 0)
(0.237799 1.07903e-05 0)
(0.237684 1.02216e-05 0)
(0.237575 1.06147e-05 0)
(0.237449 1.12473e-05 0)
(0.237337 1.08665e-05 0)
(0.23721 1.11741e-05 0)
(0.237093 1.05292e-05 0)
(0.236966 1.1823e-05 0)
(0.236834 1.28535e-05 0)
(0.236694 1.22482e-05 0)
(0.23657 1.17576e-05 0)
(0.236431 1.30601e-05 0)
(0.236281 1.44382e-05 0)
(0.236128 1.2056e-05 0)
(0.236016 9.44488e-06 0)
(0.235914 8.42813e-06 0)
(0.235816 9.87894e-06 0)
(0.235701 1.17181e-05 0)
(0.235574 1.29356e-05 0)
(0.235417 1.27806e-05 0)
(0.235298 1.05611e-05 0)
(0.235182 1.29487e-05 0)
(0.235011 1.60363e-05 0)
(0.234867 1.3166e-05 0)
(0.234738 1.37122e-05 0)
(0.234578 1.36533e-05 0)
(0.234473 9.62853e-06 0)
(0.234374 8.99986e-06 0)
(0.234267 1.03748e-05 0)
(0.234158 9.41387e-06 0)
(0.234068 8.65785e-06 0)
(0.233968 1.08791e-05 0)
(0.233836 1.27233e-05 0)
(0.23372 1.09829e-05 0)
(0.2336 9.84783e-06 0)
(0.233516 1.01631e-05 0)
(0.233372 1.29807e-05 0)
(0.233257 1.12461e-05 0)
(0.233128 9.49989e-06 0)
(0.233061 8.4085e-06 0)
(0.232915 1.11829e-05 0)
(0.23283 1.0943e-05 0)
(0.232654 1.39785e-05 0)
(0.232579 8.5331e-06 0)
(0.232397 9.08991e-06 0)
(0.232461 -2.06288e-05 0)
(0.232609 -4.7955e-06 0)
(1.00819 0.065317 0)
(0.990851 0.0518138 0)
(0.927086 0.0301994 0)
(0.830999 0.0178208 0)
(0.755584 0.0112176 0)
(0.697508 0.00756671 0)
(0.652401 0.00535859 0)
(0.617043 0.00401851 0)
(0.58873 0.00314348 0)
(0.565663 0.00257596 0)
(0.546413 0.00214615 0)
(0.530291 0.00181172 0)
(0.51645 0.00157305 0)
(0.504543 0.00135295 0)
(0.494123 0.00118393 0)
(0.484974 0.00105621 0)
(0.476745 0.000952076 0)
(0.469424 0.00086424 0)
(0.462754 0.000791173 0)
(0.456725 0.000723243 0)
(0.451188 0.000670444 0)
(0.446109 0.000622718 0)
(0.441415 0.000581559 0)
(0.437051 0.00054186 0)
(0.433027 0.000506407 0)
(0.429244 0.000479552 0)
(0.425713 0.000451997 0)
(0.422383 0.000429551 0)
(0.419255 0.000406232 0)
(0.416302 0.000386871 0)
(0.41351 0.000367986 0)
(0.410856 0.000352477 0)
(0.408338 0.0003363 0)
(0.405944 0.000321971 0)
(0.40366 0.000309353 0)
(0.401479 0.000297166 0)
(0.399392 0.000284697 0)
(0.397399 0.000274826 0)
(0.39548 0.000264554 0)
(0.39365 0.00025481 0)
(0.391881 0.00024669 0)
(0.390186 0.000237562 0)
(0.388551 0.000230277 0)
(0.386979 0.00022194 0)
(0.385461 0.000215278 0)
(0.383999 0.000208538 0)
(0.382581 0.00020274 0)
(0.381215 0.000195919 0)
(0.379892 0.000190809 0)
(0.378611 0.000184433 0)
(0.377375 0.000179331 0)
(0.376174 0.000174265 0)
(0.375012 0.00016993 0)
(0.373881 0.000164881 0)
(0.372789 0.000160741 0)
(0.371722 0.000156379 0)
(0.370694 0.000152275 0)
(0.369688 0.000148022 0)
(0.368722 0.00014345 0)
(0.367776 0.000139419 0)
(0.366873 0.000134423 0)
(0.365987 0.000130333 0)
(0.365144 0.000125535 0)
(0.364312 0.000123145 0)
(0.363511 0.000120601 0)
(0.362713 0.000119732 0)
(0.361932 0.000118213 0)
(0.361155 0.000118968 0)
(0.360381 0.000119255 0)
(0.359606 0.000120956 0)
(0.358832 0.000122862 0)
(0.358047 0.000124597 0)
(0.357278 0.000124226 0)
(0.356494 0.0001246 0)
(0.355748 0.000122635 0)
(0.354996 0.000121968 0)
(0.35428 0.000119958 0)
(0.353554 0.000118357 0)
(0.352874 0.00011474 0)
(0.352203 0.000109978 0)
(0.351582 0.000104456 0)
(0.350972 0.000100628 0)
(0.350402 9.59102e-05 0)
(0.349846 9.26605e-05 0)
(0.349319 8.74924e-05 0)
(0.348818 8.57241e-05 0)
(0.348313 8.57516e-05 0)
(0.347826 8.36393e-05 0)
(0.347341 8.20894e-05 0)
(0.34687 8.06784e-05 0)
(0.346401 7.79632e-05 0)
(0.345956 7.47214e-05 0)
(0.345521 7.42794e-05 0)
(0.34508 7.56736e-05 0)
(0.344641 7.31138e-05 0)
(0.344223 7.17065e-05 0)
(0.343795 7.07423e-05 0)
(0.343392 6.79617e-05 0)
(0.34299 6.89012e-05 0)
(0.342585 6.99692e-05 0)
(0.342179 6.69823e-05 0)
(0.341798 6.40646e-05 0)
(0.341422 6.09689e-05 0)
(0.341072 5.95788e-05 0)
(0.34071 6.08501e-05 0)
(0.340359 6.00955e-05 0)
(0.340011 5.52179e-05 0)
(0.339706 5.00581e-05 0)
(0.339413 5.07819e-05 0)
(0.339099 5.19354e-05 0)
(0.338794 4.94657e-05 0)
(0.338512 4.63969e-05 0)
(0.338235 4.4887e-05 0)
(0.337969 4.50108e-05 0)
(0.337698 4.47816e-05 0)
(0.337427 4.50388e-05 0)
(0.337174 3.96239e-05 0)
(0.336932 4.00745e-05 0)
(0.336683 4.00269e-05 0)
(0.336455 3.7207e-05 0)
(0.336227 3.82434e-05 0)
(0.336009 3.513e-05 0)
(0.335809 3.30578e-05 0)
(0.335611 3.28094e-05 0)
(0.335417 3.08327e-05 0)
(0.335227 3.22705e-05 0)
(0.335034 3.20608e-05 0)
(0.334852 3.06123e-05 0)
(0.33468 2.78489e-05 0)
(0.334519 2.52326e-05 0)
(0.334369 2.38965e-05 0)
(0.334227 2.28855e-05 0)
(0.334081 2.33136e-05 0)
(0.333941 2.23755e-05 0)
(0.333793 2.23863e-05 0)
(0.333656 2.05534e-05 0)
(0.333525 1.89017e-05 0)
(0.333394 1.78152e-05 0)
(0.333279 1.67244e-05 0)
(0.333161 1.78477e-05 0)
(0.33304 1.83924e-05 0)
(0.332917 1.9825e-05 0)
(0.332788 2.12105e-05 0)
(0.332656 2.20496e-05 0)
(0.332514 2.30453e-05 0)
(0.332374 2.40359e-05 0)
(0.332229 2.42621e-05 0)
(0.332089 2.3595e-05 0)
(0.331955 2.14788e-05 0)
(0.331827 2.2877e-05 0)
(0.331681 2.52184e-05 0)
(0.331537 2.50971e-05 0)
(0.331398 2.46741e-05 0)
(0.331247 2.56299e-05 0)
(0.3311 2.47276e-05 0)
(0.330955 2.57362e-05 0)
(0.330794 2.67614e-05 0)
(0.330647 2.60873e-05 0)
(0.330488 2.68779e-05 0)
(0.330335 2.62224e-05 0)
(0.330169 2.85437e-05 0)
(0.330001 3.02804e-05 0)
(0.329825 2.91946e-05 0)
(0.329666 2.86587e-05 0)
(0.32949 3.11977e-05 0)
(0.329306 3.33769e-05 0)
(0.32912 2.89611e-05 0)
(0.328967 2.39219e-05 0)
(0.328823 2.19874e-05 0)
(0.328685 2.41662e-05 0)
(0.328535 2.71501e-05 0)
(0.328383 3.0327e-05 0)
(0.328193 3.03637e-05 0)
(0.328037 2.60357e-05 0)
(0.327883 3.07916e-05 0)
(0.327678 3.57365e-05 0)
(0.327504 3.01295e-05 0)
(0.327341 3.13897e-05 0)
(0.327151 3.04353e-05 0)
(0.327016 2.28616e-05 0)
(0.326883 2.21588e-05 0)
(0.326745 2.42972e-05 0)
(0.326607 2.22894e-05 0)
(0.326488 2.07924e-05 0)
(0.326361 2.51511e-05 0)
(0.326202 2.82337e-05 0)
(0.326065 2.54416e-05 0)
(0.325916 2.28072e-05 0)
(0.325809 2.40158e-05 0)
(0.325634 2.91824e-05 0)
(0.325495 2.65889e-05 0)
(0.325325 2.27447e-05 0)
(0.325232 2.18627e-05 0)
(0.32504 2.64959e-05 0)
(0.324931 2.69804e-05 0)
(0.324705 3.13272e-05 0)
(0.324607 2.35225e-05 0)
(0.324375 2.01922e-05 0)
(0.324424 -3.45717e-05 0)
(0.324558 -1.05184e-05 0)
(1.0114 0.0502384 0)
(1.03997 0.0487476 0)
(1.02553 0.0348174 0)
(0.984225 0.0254156 0)
(0.930297 0.0186116 0)
(0.877834 0.0138906 0)
(0.82998 0.0105617 0)
(0.787814 0.00828133 0)
(0.751556 0.00664159 0)
(0.720527 0.00547768 0)
(0.694096 0.0045818 0)
(0.671339 0.00388215 0)
(0.651694 0.00335563 0)
(0.634555 0.00290211 0)
(0.619477 0.00254349 0)
(0.606143 0.00226134 0)
(0.594226 0.00202749 0)
(0.583589 0.00183064 0)
(0.573954 0.00166625 0)
(0.565238 0.00151849 0)
(0.557275 0.00139838 0)
(0.549991 0.00129135 0)
(0.543287 0.00119945 0)
(0.537082 0.00111334 0)
(0.531362 0.00103726 0)
(0.526011 0.000975962 0)
(0.521035 0.000916296 0)
(0.516363 0.000865947 0)
(0.511989 0.00081607 0)
(0.507875 0.000773646 0)
(0.503995 0.00073371 0)
(0.500324 0.000699275 0)
(0.496851 0.000665054 0)
(0.49356 0.000634505 0)
(0.490431 0.000607106 0)
(0.487453 0.000581425 0)
(0.48461 0.000555975 0)
(0.481902 0.000534539 0)
(0.479305 0.000513136 0)
(0.476832 0.000493008 0)
(0.474451 0.000475683 0)
(0.472174 0.000457347 0)
(0.469983 0.000441851 0)
(0.467881 0.000425364 0)
(0.465857 0.00041139 0)
(0.46391 0.000397699 0)
(0.462029 0.000385532 0)
(0.460217 0.000372169 0)
(0.458469 0.000361393 0)
(0.456779 0.000349057 0)
(0.455151 0.000338637 0)
(0.453572 0.000328548 0)
(0.452048 0.000319532 0)
(0.450568 0.00030972 0)
(0.44914 0.000301311 0)
(0.447749 0.000292639 0)
(0.44641 0.000284412 0)
(0.445104 0.000276038 0)
(0.443849 0.000267419 0)
(0.442624 0.000259411 0)
(0.441451 0.000250375 0)
(0.440304 0.000242561 0)
(0.439209 0.000234129 0)
(0.438132 0.000229135 0)
(0.437094 0.000224156 0)
(0.436067 0.000221841 0)
(0.435065 0.000218761 0)
(0.434072 0.00021895 0)
(0.433089 0.000218666 0)
(0.432112 0.00022014 0)
(0.431143 0.000222064 0)
(0.430172 0.000223382 0)
(0.429224 0.000222137 0)
(0.428268 0.000221078 0)
(0.427359 0.000216767 0)
(0.426451 0.000214006 0)
(0.42559 0.000209725 0)
(0.424727 0.000205711 0)
(0.423918 0.000198636 0)
(0.423124 0.000190088 0)
(0.422387 0.000180679 0)
(0.421667 0.00017373 0)
(0.420992 0.00016561 0)
(0.420337 0.00015971 0)
(0.419714 0.00015126 0)
(0.41912 0.000147955 0)
(0.418527 0.000147067 0)
(0.417958 0.000143496 0)
(0.417391 0.000141025 0)
(0.416839 0.000138648 0)
(0.416291 0.000134426 0)
(0.415765 0.00012945 0)
(0.415247 0.000128513 0)
(0.414729 0.00012997 0)
(0.414217 0.000126069 0)
(0.413722 0.000123976 0)
(0.413221 0.000122279 0)
(0.412742 0.000117902 0)
(0.412267 0.000118729 0)
(0.411793 0.000120012 0)
(0.411318 0.000115576 0)
(0.410867 0.000110958 0)
(0.410422 0.00010611 0)
(0.410003 0.000103762 0)
(0.409574 0.000104889 0)
(0.409161 0.000103212 0)
(0.408753 9.5666e-05 0)
(0.408386 8.7536e-05 0)
(0.40803 8.8652e-05 0)
(0.407658 9.02164e-05 0)
(0.407298 8.60417e-05 0)
(0.406957 8.12835e-05 0)
(0.406624 7.86356e-05 0)
(0.406304 7.85468e-05 0)
(0.405979 7.82758e-05 0)
(0.405658 7.79085e-05 0)
(0.405355 7.03108e-05 0)
(0.405063 7.05562e-05 0)
(0.404765 6.98264e-05 0)
(0.404491 6.5361e-05 0)
(0.404217 6.60867e-05 0)
(0.403957 6.11561e-05 0)
(0.403716 5.79658e-05 0)
(0.403478 5.74025e-05 0)
(0.403246 5.45198e-05 0)
(0.403018 5.5962e-05 0)
(0.402789 5.52699e-05 0)
(0.402572 5.27479e-05 0)
(0.402365 4.86469e-05 0)
(0.402171 4.46556e-05 0)
(0.401987 4.24531e-05 0)
(0.401811 4.10898e-05 0)
(0.40163 4.16082e-05 0)
(0.401457 4.05532e-05 0)
(0.401275 4.05218e-05 0)
(0.401104 3.78888e-05 0)
(0.400936 3.56868e-05 0)
(0.400771 3.36757e-05 0)
(0.400622 3.17691e-05 0)
(0.400471 3.32015e-05 0)
(0.400321 3.38789e-05 0)
(0.400168 3.57865e-05 0)
(0.400013 3.77497e-05 0)
(0.399855 3.91487e-05 0)
(0.399688 4.04172e-05 0)
(0.399525 4.15018e-05 0)
(0.399357 4.17324e-05 0)
(0.399195 4.05772e-05 0)
(0.399037 3.77599e-05 0)
(0.398885 3.98678e-05 0)
(0.398714 4.3204e-05 0)
(0.398547 4.29252e-05 0)
(0.398381 4.26629e-05 0)
(0.398206 4.3994e-05 0)
(0.398034 4.29419e-05 0)
(0.397862 4.46106e-05 0)
(0.397676 4.5832e-05 0)
(0.397504 4.48065e-05 0)
(0.397321 4.62026e-05 0)
(0.397142 4.58933e-05 0)
(0.396949 4.91361e-05 0)
(0.396756 5.13214e-05 0)
(0.396556 4.9725e-05 0)
(0.396373 4.93051e-05 0)
(0.396171 5.30574e-05 0)
(0.395965 5.56473e-05 0)
(0.39576 4.95478e-05 0)
(0.395578 4.27352e-05 0)
(0.3954 3.99649e-05 0)
(0.39523 4.24615e-05 0)
(0.395052 4.58305e-05 0)
(0.394882 5.0855e-05 0)
(0.394672 5.14063e-05 0)
(0.394494 4.53046e-05 0)
(0.39431 5.24619e-05 0)
(0.394085 5.85994e-05 0)
(0.393893 5.04362e-05 0)
(0.393704 5.24202e-05 0)
(0.393498 5.01267e-05 0)
(0.393342 3.94588e-05 0)
(0.393182 3.88601e-05 0)
(0.393021 4.13196e-05 0)
(0.392864 3.81714e-05 0)
(0.392721 3.60774e-05 0)
(0.392571 4.23972e-05 0)
(0.392396 4.60677e-05 0)
(0.392247 4.23661e-05 0)
(0.392081 3.85076e-05 0)
(0.391954 4.09515e-05 0)
(0.391758 4.81399e-05 0)
(0.391607 4.51377e-05 0)
(0.391408 3.93905e-05 0)
(0.391293 3.93762e-05 0)
(0.391065 4.56633e-05 0)
(0.390936 4.71271e-05 0)
(0.390674 5.22072e-05 0)
(0.39056 4.24316e-05 0)
(0.390298 3.34783e-05 0)
(0.390319 -4.46881e-05 0)
(0.390408 -1.49464e-05 0)
(1.00996 0.0450828 0)
(1.05306 0.0485503 0)
(1.05269 0.0361572 0)
(1.04254 0.0289494 0)
(1.0196 0.0233633 0)
(0.98863 0.0190717 0)
(0.954424 0.0156864 0)
(0.918992 0.0130656 0)
(0.884532 0.0109455 0)
(0.851969 0.00927136 0)
(0.822304 0.00788803 0)
(0.79548 0.00676203 0)
(0.77152 0.00586908 0)
(0.750128 0.00511009 0)
(0.731022 0.00449701 0)
(0.713896 0.00400065 0)
(0.698528 0.00358132 0)
(0.684711 0.00322818 0)
(0.67218 0.00293186 0)
(0.660796 0.0026678 0)
(0.650415 0.00244822 0)
(0.640904 0.0022544 0)
(0.632159 0.00208706 0)
(0.624073 0.00193311 0)
(0.616614 0.00179744 0)
(0.609656 0.00168422 0)
(0.603196 0.00157678 0)
(0.597144 0.00148466 0)
(0.591489 0.00139562 0)
(0.586181 0.00131907 0)
(0.581183 0.00124808 0)
(0.576467 0.00118535 0)
(0.572016 0.0011247 0)
(0.567803 0.00107035 0)
(0.563808 0.00102106 0)
(0.560015 0.00097562 0)
(0.556399 0.000931476 0)
(0.552962 0.000892989 0)
(0.549674 0.000855428 0)
(0.546545 0.000820314 0)
(0.543543 0.000789535 0)
(0.540673 0.00075799 0)
(0.53792 0.000730587 0)
(0.535281 0.000702582 0)
(0.532743 0.000678066 0)
(0.530307 0.000654344 0)
(0.527959 0.000632995 0)
(0.5257 0.000610445 0)
(0.523524 0.000591492 0)
(0.521423 0.000570856 0)
(0.519401 0.000552909 0)
(0.517444 0.000535693 0)
(0.515557 0.000519946 0)
(0.513728 0.000503514 0)
(0.511965 0.000489037 0)
(0.510253 0.000474326 0)
(0.508603 0.000460311 0)
(0.507 0.000446273 0)
(0.505457 0.000432158 0)
(0.503954 0.000418732 0)
(0.502515 0.000404348 0)
(0.501108 0.000391577 0)
(0.499763 0.000378353 0)
(0.498443 0.000369587 0)
(0.497172 0.000361034 0)
(0.49592 0.000356288 0)
(0.4947 0.000350703 0)
(0.493498 0.000349384 0)
(0.492313 0.000347588 0)
(0.491144 0.000347848 0)
(0.48999 0.000348723 0)
(0.488846 0.000348569 0)
(0.487732 0.000345621 0)
(0.486619 0.000341993 0)
(0.48556 0.000334211 0)
(0.484512 0.000328139 0)
(0.483519 0.000320369 0)
(0.482535 0.00031282 0)
(0.481611 0.000301274 0)
(0.48071 0.000288055 0)
(0.479869 0.000273862 0)
(0.479051 0.000262913 0)
(0.478283 0.000250615 0)
(0.47754 0.000241367 0)
(0.476833 0.000229162 0)
(0.476154 0.000223782 0)
(0.475485 0.000221247 0)
(0.474842 0.000215836 0)
(0.474203 0.000212295 0)
(0.47358 0.000208772 0)
(0.472962 0.000202973 0)
(0.472365 0.000196355 0)
(0.471773 0.000194716 0)
(0.471186 0.000195648 0)
(0.47061 0.000190285 0)
(0.470048 0.000187565 0)
(0.469481 0.000185 0)
(0.468936 0.000179004 0)
(0.468393 0.000179401 0)
(0.467857 0.000180536 0)
(0.467322 0.000174622 0)
(0.466809 0.000168264 0)
(0.466302 0.000161581 0)
(0.46582 0.000158173 0)
(0.465329 0.000158661 0)
(0.464861 0.000155555 0)
(0.4644 0.00014526 0)
(0.463976 0.000134223 0)
(0.463561 0.000135553 0)
(0.463136 0.000137091 0)
(0.462726 0.000131105 0)
(0.462332 0.000124673 0)
(0.461947 0.0001207 0)
(0.461574 0.000120227 0)
(0.461199 0.000119544 0)
(0.460834 0.000118196 0)
(0.460485 0.000108402 0)
(0.460149 0.000108281 0)
(0.459808 0.000106698 0)
(0.45949 0.000100444 0)
(0.459173 0.000100468 0)
(0.458877 9.33411e-05 0)
(0.458598 8.88585e-05 0)
(0.458324 8.78158e-05 0)
(0.458056 8.39467e-05 0)
(0.457793 8.51632e-05 0)
(0.457533 8.37921e-05 0)
(0.457284 8.00312e-05 0)
(0.457046 7.45028e-05 0)
(0.45682 6.91143e-05 0)
(0.456604 6.59767e-05 0)
(0.456396 6.4217e-05 0)
(0.456184 6.4769e-05 0)
(0.45598 6.36214e-05 0)
(0.455766 6.35314e-05 0)
(0.455565 6.01963e-05 0)
(0.455364 5.73873e-05 0)
(0.455169 5.42837e-05 0)
(0.454988 5.14836e-05 0)
(0.454808 5.28226e-05 0)
(0.454634 5.34905e-05 0)
(0.454454 5.57421e-05 0)
(0.454276 5.80223e-05 0)
(0.454097 5.98747e-05 0)
(0.453911 6.12795e-05 0)
(0.453729 6.23741e-05 0)
(0.453544 6.25614e-05 0)
(0.453365 6.09565e-05 0)
(0.453187 5.76492e-05 0)
(0.453012 6.05449e-05 0)
(0.452821 6.46867e-05 0)
(0.452636 6.43303e-05 0)
(0.452448 6.44227e-05 0)
(0.452253 6.60427e-05 0)
(0.45206 6.50199e-05 0)
(0.451865 6.73325e-05 0)
(0.451661 6.8581e-05 0)
(0.451468 6.71911e-05 0)
(0.451266 6.92675e-05 0)
(0.451064 6.95757e-05 0)
(0.450849 7.36285e-05 0)
(0.450637 7.60093e-05 0)
(0.45042 7.38745e-05 0)
(0.450216 7.36951e-05 0)
(0.449994 7.85836e-05 0)
(0.449772 8.10968e-05 0)
(0.449556 7.37535e-05 0)
(0.44935 6.60033e-05 0)
(0.449146 6.25022e-05 0)
(0.448948 6.50759e-05 0)
(0.448745 6.80219e-05 0)
(0.44856 7.44517e-05 0)
(0.448337 7.5703e-05 0)
(0.448143 6.84234e-05 0)
(0.447933 7.80407e-05 0)
(0.447693 8.4567e-05 0)
(0.44749 7.4179e-05 0)
(0.447278 7.68556e-05 0)
(0.447063 7.27737e-05 0)
(0.446889 5.96516e-05 0)
(0.446705 5.92708e-05 0)
(0.446526 6.15415e-05 0)
(0.446353 5.72698e-05 0)
(0.446189 5.4878e-05 0)
(0.446016 6.28421e-05 0)
(0.445828 6.62624e-05 0)
(0.445671 6.17371e-05 0)
(0.44549 5.71815e-05 0)
(0.445343 6.11467e-05 0)
(0.445131 6.9836e-05 0)
(0.444972 6.68455e-05 0)
(0.444751 5.97487e-05 0)
(0.444613 6.11896e-05 0)
(0.444356 6.88863e-05 0)
(0.444208 7.15245e-05 0)
(0.443918 7.68014e-05 0)
(0.443793 6.41701e-05 0)
(0.443524 5.44292e-05 0)
(0.4435 -5.26206e-05 0)
(0.44353 -1.76826e-05 0)
(1.00868 0.0410966 0)
(1.05097 0.0471186 0)
(1.05922 0.035196 0)
(1.05737 0.029542 0)
(1.05143 0.0253029 0)
(1.03899 0.0217747 0)
(1.02199 0.0190022 0)
(1.00103 0.0167635 0)
(0.977525 0.0147759 0)
(0.952114 0.0130543 0)
(0.926176 0.0114846 0)
(0.90054 0.0101019 0)
(0.87598 0.00891882 0)
(0.852919 0.0078696 0)
(0.831587 0.00698784 0)
(0.811923 0.00624877 0)
(0.793928 0.00560889 0)
(0.777502 0.00506414 0)
(0.76246 0.00460198 0)
(0.748666 0.00418969 0)
(0.736038 0.00384029 0)
(0.724407 0.00353274 0)
(0.713689 0.00326566 0)
(0.703757 0.00302188 0)
(0.694578 0.00280642 0)
(0.686023 0.00262327 0)
(0.678071 0.00245185 0)
(0.670628 0.0023031 0)
(0.663674 0.00216146 0)
(0.657149 0.00203882 0)
(0.651013 0.00192573 0)
(0.645229 0.00182456 0)
(0.639774 0.00172835 0)
(0.634617 0.00164181 0)
(0.629733 0.00156283 0)
(0.625101 0.00149071 0)
(0.620692 0.00142149 0)
(0.616503 0.00135988 0)
(0.612505 0.00130059 0)
(0.608702 0.00124538 0)
(0.605058 0.00119638 0)
(0.601581 0.00114714 0)
(0.598249 0.00110373 0)
(0.595057 0.0010604 0)
(0.591993 0.00102175 0)
(0.589054 0.000984568 0)
(0.586228 0.00095089 0)
(0.583509 0.000916202 0)
(0.580895 0.000886273 0)
(0.578373 0.000854735 0)
(0.575949 0.000826828 0)
(0.573604 0.000800104 0)
(0.571348 0.000775383 0)
(0.569162 0.000750276 0)
(0.567058 0.000727689 0)
(0.565017 0.000705034 0)
(0.563052 0.000683402 0)
(0.561145 0.000662016 0)
(0.559309 0.000640822 0)
(0.557524 0.000620431 0)
(0.555812 0.000599274 0)
(0.554142 0.000580215 0)
(0.552542 0.000560925 0)
(0.550976 0.000547075 0)
(0.549468 0.000533625 0)
(0.547989 0.000525256 0)
(0.546549 0.000515964 0)
(0.545137 0.000511982 0)
(0.543751 0.000507454 0)
(0.542392 0.000505272 0)
(0.541056 0.00050377 0)
(0.539744 0.000500804 0)
(0.538468 0.000495131 0)
(0.537203 0.000487626 0)
(0.536001 0.000475136 0)
(0.534818 0.000464469 0)
(0.5337 0.000451852 0)
(0.532601 0.00043955 0)
(0.531569 0.00042252 0)
(0.530565 0.000403795 0)
(0.529624 0.000383967 0)
(0.528714 0.000368102 0)
(0.527858 0.00035082 0)
(0.527032 0.0003375 0)
(0.526245 0.000321162 0)
(0.525487 0.00031318 0)
(0.524744 0.000308192 0)
(0.524032 0.000300548 0)
(0.523326 0.000295738 0)
(0.522637 0.000290827 0)
(0.521954 0.0002834 0)
(0.521291 0.000275349 0)
(0.520629 0.000272883 0)
(0.519978 0.000272603 0)
(0.519342 0.000265649 0)
(0.518715 0.000262364 0)
(0.518087 0.000258743 0)
(0.517481 0.000251263 0)
(0.516873 0.000250978 0)
(0.516279 0.000251465 0)
(0.515686 0.000244016 0)
(0.515115 0.00023594 0)
(0.51455 0.00022742 0)
(0.514007 0.000222962 0)
(0.513456 0.00022225 0)
(0.512937 0.000217057 0)
(0.512425 0.000204013 0)
(0.511947 0.000190414 0)
(0.511472 0.000191712 0)
(0.510998 0.000192542 0)
(0.51054 0.000184717 0)
(0.510095 0.000176791 0)
(0.509657 0.000171409 0)
(0.509232 0.000170324 0)
(0.508809 0.000168601 0)
(0.508404 0.000165848 0)
(0.508011 0.000153917 0)
(0.507632 0.000153304 0)
(0.507249 0.000150726 0)
(0.50689 0.000142595 0)
(0.506531 0.000141484 0)
(0.5062 0.000131723 0)
(0.505884 0.000125826 0)
(0.505576 0.000124118 0)
(0.505273 0.000119194 0)
(0.504976 0.000119912 0)
(0.504686 0.00011763 0)
(0.504407 0.000112482 0)
(0.504141 0.00010545 0)
(0.503885 9.87081e-05 0)
(0.503637 9.46276e-05 0)
(0.503399 9.24118e-05 0)
(0.503156 9.28922e-05 0)
(0.502922 9.16038e-05 0)
(0.502679 9.14023e-05 0)
(0.502449 8.74181e-05 0)
(0.502219 8.40026e-05 0)
(0.501995 7.96561e-05 0)
(0.501784 7.58401e-05 0)
(0.501575 7.66824e-05 0)
(0.501379 7.7134e-05 0)
(0.501176 7.954e-05 0)
(0.500978 8.18363e-05 0)
(0.500779 8.39588e-05 0)
(0.500577 8.53384e-05 0)
(0.500379 8.63712e-05 0)
(0.50018 8.64592e-05 0)
(0.499985 8.44971e-05 0)
(0.499791 8.10038e-05 0)
(0.499596 8.474e-05 0)
(0.499388 8.94008e-05 0)
(0.499188 8.90541e-05 0)
(0.49898 8.97463e-05 0)
(0.498767 9.15491e-05 0)
(0.498558 9.06987e-05 0)
(0.498343 9.35457e-05 0)
(0.498125 9.47044e-05 0)
(0.497913 9.30856e-05 0)
(0.497694 9.58765e-05 0)
(0.497474 9.69273e-05 0)
(0.497241 0.000101605 0)
(0.497014 0.000103967 0)
(0.496781 0.000101354 0)
(0.496561 0.000101522 0)
(0.496322 0.000107372 0)
(0.496087 0.000109258 0)
(0.495863 0.000101108 0)
(0.495636 9.32606e-05 0)
(0.495411 8.92365e-05 0)
(0.49519 9.18863e-05 0)
(0.494965 9.36595e-05 0)
(0.494766 0.000100807 0)
(0.494533 0.000102736 0)
(0.494327 9.50846e-05 0)
(0.494093 0.000107229 0)
(0.493844 0.000113193 0)
(0.493632 0.000101096 0)
(0.4934 0.000104379 0)
(0.493179 9.80626e-05 0)
(0.492989 8.33352e-05 0)
(0.492784 8.31794e-05 0)
(0.49259 8.4719e-05 0)
(0.492402 7.95645e-05 0)
(0.492217 7.7376e-05 0)
(0.492021 8.65072e-05 0)
(0.491822 8.86569e-05 0)