/*--------------------------------*- C++ -*----------------------------------*\
  =========                 |
  \\      /  F ield         | OpenFOAM: The Open Source CFD Toolbox
   \\    /   O peration     | Website:  https://openfoam.org
    \\  /    A nd           | Version:  12
     \\/     M anipulation  |
\*---------------------------------------------------------------------------*/
FoamFile
{
    format      ascii;
    class       volScalarField;
    location    "800";
    object      k;
}
// * * * * * * * * * * * * * * * * * * * * * * * * * * * * * * * * * * * * * //

dimensions      [0 2 -2 0 0 0 0];

internalField   nonuniform List<scalar> 
20000
(
0.00121539
0.00045655
0.000505716
0.000674903
0.00078593
0.000874427
0.000962177
0.00105506
0.00113198
0.00120278
0.00125068
0.00130262
0.00133582
0.00136897
0.00139715
0.00142297
0.00144261
0.00145964
0.0014732
0.00148553
0.00149478
0.00150252
0.00150859
0.00151345
0.00151754
0.00152019
0.00152213
0.0015233
0.00152362
0.00152346
0.00152296
0.00152188
0.00152033
0.00151858
0.00151647
0.00151414
0.00151171
0.00150905
0.00150611
0.00150318
0.00150004
0.00149688
0.00149359
0.00149026
0.00148688
0.00148345
0.00147994
0.00147645
0.00147289
0.00146938
0.00146583
0.00146233
0.00145877
0.00145525
0.00145175
0.00144827
0.0014448
0.00144135
0.00143793
0.00143453
0.00143116
0.00142781
0.00142449
0.00142121
0.00141794
0.00141472
0.00141153
0.00140838
0.00140525
0.00140217
0.00139911
0.00139609
0.0013931
0.00139015
0.00138723
0.00138435
0.0013815
0.00137869
0.00137591
0.00137316
0.00137046
0.00136778
0.00136513
0.00136252
0.00135994
0.00135739
0.00135488
0.0013524
0.00134995
0.00134753
0.00134514
0.00134278
0.00134045
0.00133814
0.00133587
0.00133363
0.00133142
0.00132923
0.00132707
0.00132494
0.00132284
0.00132076
0.00131871
0.00131669
0.00131469
0.00131272
0.00131077
0.00130885
0.00130694
0.00130507
0.00130322
0.00130139
0.00129958
0.0012978
0.00129604
0.0012943
0.00129258
0.00129089
0.00128921
0.00128756
0.00128593
0.00128432
0.00128272
0.00128115
0.0012796
0.00127806
0.00127655
0.00127505
0.00127357
0.00127211
0.00127067
0.00126925
0.00126784
0.00126645
0.00126508
0.00126372
0.00126238
0.00126106
0.00125975
0.00125846
0.00125718
0.00125592
0.00125467
0.00125344
0.00125223
0.00125102
0.00124984
0.00124866
0.00124751
0.00124636
0.00124523
0.00124411
0.00124301
0.00124192
0.00124084
0.00123977
0.00123872
0.00123768
0.00123665
0.00123563
0.00123463
0.00123364
0.00123266
0.00123169
0.00123073
0.00122979
0.00122885
0.00122793
0.00122702
0.00122612
0.00122523
0.00122435
0.00122348
0.00122263
0.00122178
0.00122095
0.00122012
0.0012193
0.00121849
0.00121769
0.0012169
0.00121611
0.00121534
0.00121456
0.00121381
0.00121303
0.00121231
0.00121151
0.00121084
0.00121001
0.00120942
0.00120851
0.00120804
0.00120703
0.00120663
0.00120563
0.00120522
0.00120419
0.00120386
0.00120226
0.00309521
0.00342053
0.00442797
0.00580071
0.00659014
0.00721071
0.00780976
0.00842591
0.0089142
0.00934908
0.00962695
0.00992768
0.010108
0.0102867
0.0104338
0.0105666
0.0106617
0.0107418
0.0108017
0.0108552
0.010891
0.0109189
0.0109376
0.01095
0.0109588
0.0109599
0.0109575
0.0109513
0.0109407
0.010928
0.0109139
0.0108968
0.0108776
0.0108577
0.0108361
0.0108137
0.010791
0.0107674
0.0107426
0.010718
0.0106926
0.0106673
0.0106416
0.0106158
0.0105901
0.0105642
0.0105381
0.0105123
0.0104863
0.0104607
0.0104351
0.0104099
0.0103846
0.0103596
0.0103349
0.0103104
0.0102861
0.010262
0.0102382
0.0102147
0.0101914
0.0101684
0.0101455
0.0101231
0.0101007
0.0100788
0.0100571
0.0100357
0.0100145
0.00999359
0.00997294
0.00995258
0.00993246
0.0099126
0.00989302
0.00987368
0.0098546
0.00983579
0.00981721
0.00979887
0.00978081
0.00976295
0.00974535
0.00972797
0.00971082
0.00969391
0.00967722
0.00966076
0.00964451
0.00962848
0.00961266
0.00959704
0.00958164
0.00956643
0.00955143
0.00953662
0.00952202
0.00950759
0.00949337
0.00947932
0.00946548
0.00945179
0.0094383
0.00942498
0.00941183
0.00939885
0.00938603
0.0093734
0.00936091
0.0093486
0.00933642
0.00932443
0.00931256
0.00930087
0.00928931
0.00927791
0.00926664
0.00925553
0.00924454
0.00923371
0.009223
0.00921244
0.00920199
0.00919169
0.00918151
0.00917146
0.00916154
0.00915173
0.00914205
0.00913249
0.00912305
0.00911371
0.0091045
0.0090954
0.00908641
0.00907752
0.00906876
0.00906008
0.00905153
0.00904307
0.00903472
0.00902646
0.00901831
0.00901025
0.0090023
0.00899443
0.00898667
0.00897899
0.00897141
0.00896391
0.00895651
0.00894919
0.00894197
0.00893482
0.00892776
0.00892079
0.0089139
0.00890709
0.00890036
0.0088937
0.00888713
0.00888064
0.00887422
0.00886787
0.0088616
0.00885541
0.00884929
0.00884325
0.00883728
0.00883139
0.00882556
0.0088198
0.00881411
0.00880848
0.00880293
0.00879746
0.00879205
0.00878668
0.00878138
0.0087761
0.00877093
0.00876572
0.0087607
0.00875554
0.00875068
0.00874551
0.00874082
0.00873555
0.00873118
0.00872571
0.00872185
0.00871585
0.00871272
0.00870613
0.00870341
0.00869685
0.00869411
0.00868732
0.00868506
0.00867488
0.00355493
0.00360063
0.00411384
0.00536318
0.00668234
0.00807078
0.00935288
0.0105363
0.0114752
0.0122821
0.0128596
0.0134052
0.0137955
0.0141442
0.0144334
0.0146881
0.0148826
0.0150479
0.0151793
0.0152945
0.0153816
0.0154537
0.0155099
0.0155545
0.0155909
0.0156157
0.0156325
0.0156431
0.0156466
0.0156458
0.0156417
0.0156328
0.01562
0.0156053
0.0155877
0.0155685
0.0155481
0.0155259
0.0155016
0.0154771
0.0154511
0.0154248
0.0153976
0.01537
0.0153421
0.0153137
0.0152849
0.0152561
0.0152269
0.0151979
0.0151688
0.01514
0.0151108
0.0150819
0.0150532
0.0150247
0.0149962
0.0149679
0.0149399
0.0149121
0.0148845
0.0148572
0.01483
0.0148032
0.0147764
0.0147501
0.014724
0.0146983
0.0146727
0.0146475
0.0146225
0.0145979
0.0145735
0.0145493
0.0145255
0.014502
0.0144787
0.0144557
0.014433
0.0144106
0.0143884
0.0143665
0.0143449
0.0143236
0.0143025
0.0142817
0.0142611
0.0142408
0.0142208
0.014201
0.0141814
0.0141621
0.0141431
0.0141242
0.0141056
0.0140873
0.0140692
0.0140512
0.0140336
0.0140161
0.0139989
0.0139819
0.0139651
0.0139485
0.0139321
0.0139159
0.0139
0.0138842
0.0138686
0.0138532
0.013838
0.013823
0.0138082
0.0137936
0.0137791
0.0137648
0.0137507
0.0137368
0.013723
0.0137094
0.013696
0.0136828
0.0136696
0.0136567
0.0136439
0.0136313
0.0136188
0.0136065
0.0135943
0.0135823
0.0135704
0.0135587
0.0135471
0.0135356
0.0135243
0.0135131
0.0135021
0.0134912
0.0134804
0.0134697
0.0134592
0.0134488
0.0134385
0.0134283
0.0134183
0.0134084
0.0133986
0.0133889
0.0133793
0.0133698
0.0133605
0.0133512
0.0133421
0.0133331
0.0133241
0.0133153
0.0133066
0.013298
0.0132895
0.0132811
0.0132727
0.0132645
0.0132564
0.0132484
0.0132404
0.0132326
0.0132248
0.0132172
0.0132096
0.0132022
0.0131948
0.0131875
0.0131803
0.0131732
0.0131661
0.0131592
0.0131524
0.0131456
0.0131388
0.0131322
0.0131256
0.0131191
0.0131126
0.0131062
0.0130999
0.0130935
0.0130874
0.013081
0.0130752
0.0130686
0.0130634
0.0130563
0.013052
0.0130441
0.0130404
0.0130325
0.0130288
0.013021
0.0130174
0.0130074
0.00376345
0.00368
0.00376213
0.00416022
0.00503519
0.00623665
0.00752928
0.00891423
0.0101738
0.0113378
0.0122817
0.0131474
0.013849
0.0144615
0.0149771
0.0154267
0.0157884
0.016099
0.0163563
0.0165815
0.0167642
0.0169207
0.0170508
0.0171611
0.0172555
0.0173321
0.0173948
0.0174466
0.0174871
0.01752
0.0175452
0.0175634
0.0175753
0.0175829
0.0175854
0.0175845
0.0175811
0.017574
0.0175637
0.017552
0.0175377
0.0175222
0.0175049
0.0174863
0.0174668
0.017446
0.0174242
0.0174019
0.0173787
0.0173553
0.0173313
0.0173071
0.0172823
0.0172574
0.0172324
0.0172073
0.0171819
0.0171566
0.0171313
0.0171059
0.0170806
0.0170553
0.0170301
0.017005
0.0169799
0.016955
0.0169303
0.0169058
0.0168814
0.0168572
0.0168331
0.0168092
0.0167856
0.0167621
0.0167389
0.0167159
0.016693
0.0166705
0.0166481
0.0166259
0.0166041
0.0165824
0.0165609
0.0165396
0.0165186
0.0164978
0.0164773
0.0164569
0.0164368
0.0164169
0.0163973
0.0163778
0.0163586
0.0163396
0.0163208
0.0163022
0.0162838
0.0162657
0.0162477
0.01623
0.0162125
0.0161951
0.016178
0.0161611
0.0161443
0.0161278
0.0161115
0.0160953
0.0160793
0.0160636
0.016048
0.0160326
0.0160173
0.0160023
0.0159874
0.0159727
0.0159582
0.0159439
0.0159297
0.0159157
0.0159018
0.0158881
0.0158746
0.0158612
0.015848
0.015835
0.015822
0.0158093
0.0157967
0.0157842
0.0157719
0.0157597
0.0157477
0.0157358
0.0157241
0.0157125
0.015701
0.0156896
0.0156784
0.0156673
0.0156564
0.0156455
0.0156348
0.0156243
0.0156138
0.0156035
0.0155933
0.0155832
0.0155732
0.0155633
0.0155536
0.0155439
0.0155344
0.015525
0.0155157
0.0155065
0.0154974
0.0154884
0.0154795
0.0154707
0.015462
0.0154534
0.0154449
0.0154366
0.0154283
0.0154201
0.015412
0.015404
0.0153961
0.0153883
0.0153806
0.015373
0.0153654
0.015358
0.0153506
0.0153434
0.0153362
0.0153292
0.0153221
0.0153152
0.0153083
0.0153015
0.0152947
0.0152881
0.0152814
0.0152749
0.0152683
0.0152618
0.0152556
0.015249
0.0152433
0.0152362
0.0152313
0.0152235
0.0152196
0.0152115
0.0152076
0.0151999
0.0151961
0.0151871
0.00382063
0.0037578
0.00369072
0.00373445
0.00395224
0.00445033
0.00519603
0.00620963
0.00733412
0.00859163
0.00977872
0.0109192
0.0119291
0.0128215
0.0135946
0.014281
0.0148608
0.0153658
0.0157981
0.0161793
0.0165011
0.0167828
0.0170243
0.0172354
0.0174198
0.0175777
0.0177134
0.0178312
0.0179313
0.0180187
0.0180929
0.0181561
0.0182093
0.0182545
0.0182917
0.0183229
0.0183483
0.0183686
0.0183835
0.0183951
0.0184024
0.0184069
0.0184083
0.0184072
0.0184042
0.0183985
0.0183911
0.0183821
0.0183715
0.0183599
0.018347
0.0183333
0.0183183
0.0183028
0.0182867
0.0182698
0.0182524
0.0182345
0.0182163
0.0181976
0.0181787
0.0181594
0.0181399
0.0181203
0.0181004
0.0180806
0.0180606
0.0180406
0.0180204
0.0180003
0.0179802
0.0179601
0.01794
0.01792
0.0179001
0.0178802
0.0178604
0.0178407
0.0178211
0.0178016
0.0177823
0.0177631
0.017744
0.017725
0.0177061
0.0176875
0.0176689
0.0176505
0.0176323
0.0176142
0.0175963
0.0175785
0.0175609
0.0175434
0.0175261
0.017509
0.017492
0.0174752
0.0174585
0.017442
0.0174257
0.0174096
0.0173936
0.0173778
0.0173621
0.0173466
0.0173312
0.0173161
0.017301
0.0172862
0.0172714
0.0172569
0.0172425
0.0172282
0.0172141
0.0172002
0.0171864
0.0171728
0.0171593
0.0171459
0.0171327
0.0171196
0.0171067
0.0170939
0.0170813
0.0170688
0.0170564
0.0170442
0.0170321
0.0170202
0.0170083
0.0169966
0.0169851
0.0169736
0.0169623
0.0169511
0.0169401
0.0169291
0.0169183
0.0169076
0.016897
0.0168866
0.0168762
0.016866
0.0168559
0.0168459
0.016836
0.0168262
0.0168166
0.016807
0.0167975
0.0167882
0.016779
0.0167698
0.0167608
0.0167518
0.016743
0.0167343
0.0167256
0.0167171
0.0167086
0.0167003
0.016692
0.0166839
0.0166758
0.0166678
0.01666
0.0166522
0.0166445
0.0166369
0.0166294
0.016622
0.0166146
0.0166074
0.0166002
0.0165932
0.0165862
0.0165794
0.0165725
0.0165658
0.016559
0.0165524
0.0165458
0.0165394
0.0165328
0.0165265
0.0165201
0.0165139
0.0165076
0.0165014
0.0164956
0.016489
0.0164841
0.0164768
0.0164728
0.0164652
0.0164615
0.0164543
0.0164507
0.0164428
0.00384397
0.00383109
0.00376463
0.00367987
0.00368607
0.00376953
0.00398499
0.00442396
0.00502181
0.005846
0.006795
0.00785284
0.00892857
0.00997789
0.010953
0.0118585
0.0126703
0.0133986
0.0140399
0.0146135
0.0151133
0.0155558
0.0159435
0.0162861
0.0165882
0.0168534
0.0170869
0.0172937
0.0174753
0.0176372
0.0177793
0.0179051
0.0180158
0.018114
0.0182001
0.0182767
0.0183436
0.0184029
0.018454
0.0184993
0.0185379
0.0185717
0.0186006
0.0186249
0.0186457
0.0186626
0.0186764
0.0186873
0.0186954
0.0187015
0.0187053
0.0187073
0.0187072
0.0187059
0.0187032
0.018699
0.0186936
0.0186873
0.01868
0.0186718
0.0186627
0.018653
0.0186425
0.0186315
0.0186199
0.018608
0.0185955
0.0185827
0.0185696
0.0185561
0.0185424
0.0185285
0.0185143
0.0185
0.0184855
0.0184709
0.0184561
0.0184413
0.0184264
0.0184115
0.0183965
0.0183815
0.0183665
0.0183514
0.0183364
0.0183214
0.0183064
0.0182915
0.0182766
0.0182617
0.0182469
0.0182322
0.0182175
0.0182029
0.0181883
0.0181739
0.0181595
0.0181452
0.0181311
0.018117
0.018103
0.0180891
0.0180753
0.0180616
0.018048
0.0180345
0.0180212
0.0180079
0.0179947
0.0179817
0.0179688
0.0179559
0.0179432
0.0179306
0.0179181
0.0179058
0.0178935
0.0178814
0.0178693
0.0178574
0.0178456
0.0178339
0.0178223
0.0178108
0.0177995
0.0177882
0.0177771
0.017766
0.0177551
0.0177443
0.0177336
0.017723
0.0177125
0.0177021
0.0176918
0.0176816
0.0176715
0.0176616
0.0176517
0.0176419
0.0176323
0.0176227
0.0176132
0.0176039
0.0175946
0.0175854
0.0175764
0.0175674
0.0175585
0.0175497
0.017541
0.0175324
0.0175239
0.0175155
0.0175072
0.0174989
0.0174908
0.0174827
0.0174747
0.0174668
0.017459
0.0174513
0.0174437
0.0174361
0.0174287
0.0174213
0.017414
0.0174068
0.0173997
0.0173926
0.0173857
0.0173788
0.017372
0.0173653
0.0173586
0.0173522
0.0173457
0.0173393
0.0173329
0.0173267
0.0173204
0.0173144
0.0173081
0.0173023
0.0172961
0.0172904
0.0172843
0.0172787
0.0172727
0.0172671
0.0172616
0.0172557
0.0172509
0.0172445
0.0172406
0.0172339
0.0172304
0.017224
0.0172208
0.0172141
0.00384402
0.00388399
0.00384173
0.00374981
0.00368659
0.00364
0.00365575
0.00373529
0.00391518
0.00425488
0.00472753
0.00536208
0.0061271
0.00699821
0.00791596
0.00885406
0.0097662
0.0106368
0.0114428
0.0121888
0.0128635
0.0134752
0.0140243
0.0145183
0.0149616
0.0153582
0.0157132
0.0160325
0.0163177
0.0165753
0.0168049
0.0170118
0.0171975
0.0173647
0.0175148
0.0176507
0.0177723
0.0178824
0.0179807
0.0180699
0.0181497
0.0182217
0.0182867
0.0183446
0.018397
0.0184437
0.0184856
0.0185228
0.0185559
0.0185856
0.0186116
0.0186347
0.0186546
0.0186721
0.0186874
0.0187003
0.0187113
0.0187205
0.0187279
0.0187338
0.0187382
0.0187413
0.0187432
0.0187439
0.0187435
0.0187424
0.0187403
0.0187374
0.0187337
0.0187294
0.0187244
0.0187189
0.0187128
0.0187063
0.0186993
0.018692
0.0186842
0.0186762
0.0186677
0.0186591
0.0186502
0.018641
0.0186317
0.0186221
0.0186124
0.0186025
0.0185925
0.0185824
0.0185722
0.0185618
0.0185514
0.018541
0.0185304
0.0185198
0.0185092
0.0184985
0.0184878
0.0184772
0.0184665
0.0184558
0.0184451
0.0184344
0.0184237
0.0184131
0.0184025
0.0183919
0.0183813
0.0183708
0.0183604
0.0183499
0.0183395
0.0183292
0.0183189
0.0183087
0.0182986
0.0182884
0.0182784
0.0182684
0.0182585
0.0182487
0.0182389
0.0182292
0.0182195
0.0182099
0.0182004
0.018191
0.0181816
0.0181723
0.0181631
0.018154
0.0181449
0.0181359
0.018127
0.0181182
0.0181094
0.0181007
0.0180921
0.0180835
0.0180751
0.0180667
0.0180584
0.0180501
0.018042
0.0180339
0.0180259
0.018018
0.0180101
0.0180023
0.0179946
0.017987
0.0179794
0.0179719
0.0179645
0.0179572
0.0179499
0.0179427
0.0179356
0.0179285
0.0179215
0.0179146
0.0179078
0.017901
0.0178943
0.0178877
0.0178811
0.0178746
0.0178682
0.0178619
0.0178556
0.0178494
0.0178433
0.0178372
0.0178312
0.0178253
0.0178195
0.0178138
0.017808
0.0178025
0.0177968
0.0177914
0.0177857
0.0177804
0.0177749
0.0177698
0.0177643
0.0177593
0.0177538
0.0177489
0.0177436
0.0177387
0.0177338
0.0177287
0.0177244
0.0177189
0.0177153
0.0177096
0.0177066
0.0177011
0.0176985
0.0176933
0.00383059
0.00390648
0.00388323
0.0038203
0.00374802
0.00367342
0.00362251
0.00359137
0.00360438
0.00366408
0.00380046
0.00404753
0.00439819
0.00487559
0.00546196
0.00615133
0.0069096
0.00771351
0.00852558
0.00932896
0.0100994
0.010829
0.0115089
0.0121385
0.0127175
0.0132477
0.0137305
0.0141719
0.0145721
0.0149382
0.0152696
0.0155716
0.0158461
0.0160962
0.0163237
0.0165319
0.0167206
0.0168937
0.017051
0.0171954
0.0173267
0.0174472
0.0175578
0.0176584
0.0177509
0.0178355
0.017913
0.0179839
0.0180488
0.0181084
0.0181627
0.0182126
0.0182581
0.0182997
0.0183379
0.0183726
0.0184042
0.0184331
0.0184593
0.0184831
0.0185046
0.018524
0.0185414
0.0185571
0.018571
0.0185835
0.0185945
0.0186043
0.0186127
0.01862
0.0186262
0.0186315
0.0186358
0.0186392
0.0186418
0.0186437
0.0186449
0.0186454
0.0186453
0.0186448
0.0186436
0.018642
0.0186399
0.0186374
0.0186345
0.0186312
0.0186276
0.0186236
0.0186194
0.0186149
0.0186102
0.0186052
0.0186
0.0185945
0.0185889
0.0185832
0.0185772
0.0185712
0.018565
0.0185587
0.0185522
0.0185457
0.0185391
0.0185324
0.0185256
0.0185187
0.0185118
0.0185049
0.0184979
0.0184908
0.0184837
0.0184766
0.0184695
0.0184624
0.0184552
0.0184481
0.0184409
0.0184337
0.0184265
0.0184194
0.0184122
0.0184051
0.018398
0.0183908
0.0183838
0.0183767
0.0183696
0.0183626
0.0183556
0.0183487
0.0183417
0.0183348
0.018328
0.0183211
0.0183143
0.0183076
0.0183008
0.0182942
0.0182875
0.0182809
0.0182744
0.0182679
0.0182614
0.018255
0.0182486
0.0182423
0.018236
0.0182298
0.0182236
0.0182175
0.0182114
0.0182054
0.0181994
0.0181935
0.0181876
0.0181817
0.0181759
0.0181702
0.0181645
0.0181589
0.0181533
0.0181477
0.0181423
0.0181368
0.0181314
0.0181261
0.0181208
0.0181156
0.0181105
0.0181054
0.0181003
0.0180954
0.0180904
0.0180856
0.0180807
0.018076
0.0180712
0.0180667
0.018062
0.0180575
0.0180528
0.0180485
0.0180438
0.0180397
0.018035
0.018031
0.0180263
0.0180224
0.0180178
0.0180139
0.0180097
0.0180056
0.0180019
0.0179976
0.0179945
0.01799
0.0179875
0.0179832
0.0179812
0.0179776
0.00381068
0.00390554
0.00389797
0.00386144
0.0038019
0.00373326
0.00366926
0.00360855
0.00356644
0.00353699
0.00354424
0.00358254
0.00367366
0.00384671
0.00409418
0.00443582
0.00486863
0.00539253
0.00599044
0.0066478
0.00733955
0.00804691
0.00874982
0.00943511
0.0100923
0.0107164
0.0113014
0.0118492
0.0123567
0.0128286
0.0132636
0.0136654
0.0140354
0.0143765
0.0146901
0.0149801
0.015246
0.0154918
0.0157177
0.0159267
0.016119
0.016297
0.0164616
0.0166132
0.0167538
0.0168839
0.0170045
0.0171159
0.0172193
0.0173154
0.0174042
0.0174868
0.0175634
0.0176345
0.0177007
0.0177622
0.0178192
0.0178724
0.0179217
0.0179676
0.0180101
0.0180497
0.0180865
0.0181206
0.0181523
0.0181817
0.0182091
0.0182344
0.0182578
0.0182795
0.0182996
0.0183181
0.0183352
0.018351
0.0183655
0.0183789
0.0183911
0.0184023
0.0184125
0.0184218
0.0184303
0.0184379
0.0184448
0.0184509
0.0184564
0.0184613
0.0184655
0.0184692
0.0184724
0.018475
0.0184772
0.018479
0.0184803
0.0184813
0.0184819
0.0184821
0.018482
0.0184817
0.018481
0.01848
0.0184789
0.0184774
0.0184758
0.0184739
0.0184719
0.0184696
0.0184672
0.0184646
0.0184619
0.018459
0.018456
0.0184529
0.0184497
0.0184463
0.0184429
0.0184393
0.0184357
0.018432
0.0184282
0.0184243
0.0184204
0.0184164
0.0184124
0.0184083
0.0184042
0.0184001
0.0183959
0.0183917
0.0183874
0.0183831
0.0183788
0.0183745
0.0183702
0.0183658
0.0183614
0.0183571
0.0183527
0.0183483
0.0183439
0.0183395
0.0183352
0.0183308
0.0183264
0.0183221
0.0183177
0.0183134
0.018309
0.0183047
0.0183004
0.0182961
0.0182919
0.0182876
0.0182834
0.0182792
0.018275
0.0182708
0.0182667
0.0182626
0.0182585
0.0182544
0.0182504
0.0182463
0.0182424
0.0182384
0.0182345
0.0182306
0.0182267
0.0182229
0.0182191
0.0182153
0.0182116
0.0182079
0.0182043
0.0182007
0.0181971
0.0181936
0.0181901
0.0181867
0.0181832
0.0181799
0.0181764
0.0181732
0.0181697
0.0181666
0.0181631
0.0181601
0.0181565
0.0181537
0.0181501
0.0181473
0.018144
0.0181411
0.0181383
0.0181351
0.0181328
0.0181296
0.0181278
0.0181248
0.0181235
0.0181217
0.00379119
0.00388823
0.00389567
0.00387644
0.00383419
0.00377766
0.00372041
0.00365877
0.00360383
0.00355034
0.00351394
0.00348278
0.00348297
0.00350322
0.00355774
0.00366938
0.00383669
0.00407013
0.00437576
0.00475575
0.00520481
0.00571592
0.00627477
0.00686734
0.00747696
0.00809238
0.00869887
0.009291
0.00985928
0.0104029
0.0109172
0.0114025
0.0118576
0.0122841
0.0126817
0.0130538
0.0133995
0.0137221
0.0140218
0.0143012
0.0145609
0.0148028
0.0150284
0.015238
0.0154337
0.015616
0.0157864
0.0159451
0.0160934
0.0162321
0.0163615
0.0164826
0.0165959
0.016702
0.0168015
0.0168947
0.016982
0.0170641
0.017141
0.0172132
0.0172809
0.0173447
0.0174045
0.0174607
0.0175136
0.0175633
0.0176102
0.0176542
0.0176956
0.0177346
0.0177712
0.0178058
0.0178383
0.0178689
0.0178977
0.0179248
0.0179503
0.0179743
0.0179969
0.0180182
0.0180382
0.018057
0.0180746
0.0180913
0.0181068
0.0181215
0.0181352
0.0181481
0.0181602
0.0181715
0.0181821
0.0181921
0.0182013
0.01821
0.018218
0.0182255
0.0182325
0.018239
0.018245
0.0182505
0.0182557
0.0182604
0.0182647
0.0182687
0.0182724
0.0182757
0.0182787
0.0182814
0.0182838
0.0182859
0.0182878
0.0182895
0.0182909
0.0182921
0.0182931
0.0182939
0.0182945
0.018295
0.0182952
0.0182954
0.0182953
0.0182952
0.0182949
0.0182944
0.0182939
0.0182932
0.0182924
0.0182915
0.0182905
0.0182895
0.0182883
0.0182871
0.0182858
0.0182844
0.0182829
0.0182814
0.0182798
0.0182782
0.0182765
0.0182747
0.018273
0.0182711
0.0182693
0.0182674
0.0182654
0.0182635
0.0182615
0.0182594
0.0182574
0.0182553
0.0182532
0.0182511
0.018249
0.0182468
0.0182447
0.0182425
0.0182403
0.0182381
0.0182359
0.0182337
0.0182315
0.0182293
0.0182271
0.0182249
0.0182227
0.0182205
0.0182183
0.0182161
0.0182139
0.0182118
0.0182096
0.0182075
0.0182054
0.0182033
0.0182012
0.0181992
0.0181971
0.0181952
0.0181931
0.0181912
0.018189
0.0181872
0.018185
0.0181832
0.018181
0.0181793
0.0181771
0.0181754
0.0181732
0.0181716
0.0181695
0.0181678
0.018166
0.0181643
0.0181629
0.0181611
0.0181602
0.0181586
0.0181581
0.0181582
0.00377573
0.00385949
0.00388212
0.00387262
0.00384671
0.00380349
0.00375608
0.00370199
0.00365007
0.00359462
0.00354629
0.00349825
0.00346292
0.00343523
0.00342195
0.00343071
0.00345979
0.00352395
0.00363129
0.00378317
0.00398781
0.00425051
0.00457033
0.004947
0.00537308
0.00584297
0.00634322
0.00686605
0.00739812
0.00793273
0.00846063
0.00897698
0.00947616
0.00995648
0.0104145
0.0108512
0.0112641
0.011655
0.0120232
0.0123704
0.0126968
0.0130034
0.0132921
0.0135626
0.013817
0.0140557
0.0142802
0.0144909
0.014689
0.0148753
0.0150503
0.015215
0.0153701
0.015516
0.0156536
0.0157832
0.0159054
0.0160209
0.0161297
0.0162326
0.0163296
0.0164215
0.0165082
0.0165903
0.016668
0.0167415
0.0168112
0.0168772
0.0169397
0.016999
0.0170553
0.0171086
0.0171593
0.0172073
0.017253
0.0172963
0.0173375
0.0173767
0.0174139
0.0174492
0.0174829
0.0175149
0.0175453
0.0175743
0.0176018
0.0176281
0.017653
0.0176768
0.0176994
0.017721
0.0177415
0.0177611
0.0177797
0.0177974
0.0178143
0.0178303
0.0178456
0.0178602
0.0178741
0.0178874
0.0179
0.017912
0.0179234
0.0179342
0.0179446
0.0179544
0.0179638
0.0179727
0.0179812
0.0179893
0.017997
0.0180043
0.0180112
0.0180178
0.018024
0.01803
0.0180356
0.018041
0.018046
0.0180509
0.0180554
0.0180597
0.0180638
0.0180677
0.0180713
0.0180747
0.018078
0.0180811
0.0180839
0.0180867
0.0180892
0.0180916
0.0180939
0.018096
0.0180979
0.0180998
0.0181015
0.0181031
0.0181046
0.018106
0.0181072
0.0181084
0.0181095
0.0181105
0.0181114
0.0181122
0.0181129
0.0181136
0.0181142
0.0181147
0.0181152
0.0181155
0.0181159
0.0181162
0.0181164
0.0181166
0.0181167
0.0181168
0.0181168
0.0181168
0.0181167
0.0181167
0.0181165
0.0181164
0.0181162
0.018116
0.0181158
0.0181155
0.0181152
0.018115
0.0181147
0.0181144
0.018114
0.0181137
0.0181133
0.018113
0.0181126
0.0181124
0.0181119
0.0181116
0.0181111
0.0181108
0.0181102
0.01811
0.0181093
0.0181091
0.0181084
0.0181081
0.0181073
0.0181071
0.0181064
0.0181062
0.0181057
0.0181055
0.0181052
0.018105
0.0181051
0.0181051
0.0181057
0.0181078
0.00376521
0.00382737
0.00385895
0.00385672
0.00384318
0.00381332
0.00377568
0.00373066
0.00368518
0.00363538
0.00358784
0.00353898
0.00349335
0.00345221
0.00341577
0.00338955
0.00336808
0.0033676
0.00337898
0.00340955
0.00347196
0.00356667
0.00369587
0.00386775
0.00408342
0.00434599
0.00465253
0.00500255
0.00538868
0.00580622
0.00624638
0.00670277
0.00716669
0.00763303
0.00809487
0.00854935
0.00899165
0.00942036
0.00983294
0.0102289
0.0106075
0.0109681
0.0113118
0.0116378
0.0119474
0.0122406
0.0125187
0.0127818
0.013031
0.0132668
0.0134898
0.0137009
0.0139008
0.0140899
0.0142691
0.0144388
0.0145995
0.0147521
0.0148966
0.0150338
0.0151638
0.0152874
0.0154046
0.0155161
0.015622
0.0157228
0.0158186
0.0159098
0.0159966
0.0160792
0.016158
0.016233
0.0163046
0.0163729
0.016438
0.0165002
0.0165595
0.0166162
0.0166704
0.0167221
0.0167716
0.016819
0.0168643
0.0169076
0.0169491
0.0169888
0.0170268
0.0170633
0.0170982
0.0171316
0.0171637
0.0171945
0.017224
0.0172523
0.0172795
0.0173056
0.0173306
0.0173546
0.0173777
0.0173999
0.0174212
0.0174417
0.0174613
0.0174802
0.0174984
0.0175159
0.0175327
0.0175489
0.0175645
0.0175795
0.0175939
0.0176077
0.0176211
0.017634
0.0176463
0.0176583
0.0176697
0.0176808
0.0176915
0.0177017
0.0177116
0.0177212
0.0177304
0.0177392
0.0177478
0.017756
0.0177639
0.0177716
0.017779
0.0177861
0.017793
0.0177996
0.017806
0.0178122
0.0178181
0.0178239
0.0178294
0.0178348
0.0178399
0.0178449
0.0178497
0.0178544
0.0178589
0.0178632
0.0178674
0.0178715
0.0178754
0.0178792
0.0178828
0.0178864
0.0178898
0.0178931
0.0178963
0.0178994
0.0179024
0.0179052
0.017908
0.0179107
0.0179134
0.0179159
0.0179183
0.0179207
0.017923
0.0179253
0.0179274
0.0179295
0.0179315
0.0179335
0.0179355
0.0179374
0.0179392
0.017941
0.0179427
0.0179444
0.017946
0.0179477
0.0179493
0.017951
0.0179524
0.017954
0.0179553
0.0179568
0.017958
0.0179596
0.0179607
0.0179622
0.0179631
0.0179646
0.0179654
0.0179669
0.0179678
0.0179693
0.0179702
0.0179717
0.0179727
0.0179743
0.0179755
0.0179775
0.0179791
0.0179834
0.0037587
0.00379754
0.00382984
0.00383366
0.00382763
0.00380977
0.0037813
0.00374521
0.00370683
0.00366417
0.00362111
0.00357654
0.00353167
0.00348903
0.00344604
0.00340876
0.00337326
0.00334538
0.0033245
0.00330954
0.00331135
0.00332339
0.00335169
0.0034057
0.00348329
0.00358881
0.00372597
0.00389862
0.0041063
0.00435083
0.00463004
0.00494248
0.00528298
0.0056479
0.00603088
0.00642744
0.00683143
0.00723874
0.00764482
0.00804622
0.00844072
0.00882512
0.00919899
0.00956009
0.0099085
0.0102431
0.0105645
0.010872
0.0111661
0.0114471
0.0117153
0.0119709
0.0122147
0.0124469
0.0126682
0.012879
0.0130797
0.0132712
0.0134534
0.0136272
0.0137926
0.0139505
0.014101
0.0142445
0.0143815
0.0145122
0.014637
0.0147562
0.01487
0.0149788
0.0150828
0.0151823
0.0152774
0.0153685
0.0154556
0.0155391
0.0156191
0.0156957
0.0157692
0.0158396
0.0159072
0.015972
0.0160343
0.0160941
0.0161515
0.0162066
0.0162596
0.0163106
0.0163596
0.0164068
0.0164522
0.0164958
0.0165379
0.0165784
0.0166174
0.016655
0.0166912
0.0167261
0.0167598
0.0167923
0.0168236
0.0168539
0.016883
0.0169112
0.0169385
0.0169648
0.0169902
0.0170147
0.0170384
0.0170614
0.0170836
0.0171051
0.0171258
0.0171459
0.0171654
0.0171842
0.0172024
0.0172201
0.0172372
0.0172537
0.0172698
0.0172854
0.0173004
0.0173151
0.0173293
0.017343
0.0173564
0.0173693
0.0173819
0.0173941
0.0174059
0.0174174
0.0174286
0.0174395
0.01745
0.0174603
0.0174702
0.0174799
0.0174893
0.0174985
0.0175074
0.017516
0.0175245
0.0175327
0.0175407
0.0175484
0.017556
0.0175634
0.0175706
0.0175776
0.0175844
0.0175911
0.0175975
0.0176039
0.01761
0.017616
0.0176219
0.0176276
0.0176332
0.0176387
0.017644
0.0176492
0.0176543
0.0176592
0.0176641
0.0176688
0.0176735
0.017678
0.0176825
0.0176868
0.0176911
0.0176953
0.0176994
0.0177035
0.0177074
0.0177114
0.0177151
0.017719
0.0177226
0.0177263
0.0177298
0.0177334
0.0177367
0.0177402
0.0177433
0.0177468
0.0177497
0.0177531
0.0177558
0.0177592
0.0177618
0.0177652
0.0177678
0.0177713
0.0177738
0.0177774
0.01778
0.017784
0.0177868
0.0177937
0.00375413
0.00377374
0.00379919
0.00380679
0.00380454
0.00379518
0.0037756
0.00374748
0.00371604
0.00368045
0.00364298
0.00360384
0.00356301
0.00352291
0.00348151
0.00344245
0.00340354
0.0033671
0.00333509
0.00330541
0.00328194
0.00326448
0.00325282
0.00325454
0.00326442
0.00328731
0.00332966
0.00339089
0.00347217
0.00357833
0.00371063
0.00387126
0.00406018
0.00427823
0.00452391
0.00479573
0.0050905
0.00540504
0.00573566
0.006078
0.00642912
0.00678429
0.00714137
0.00749658
0.00784832
0.00819403
0.00853276
0.0088628
0.00918369
0.00949452
0.00979513
0.010085
0.0103644
0.010633
0.0108912
0.0111391
0.0113769
0.0116052
0.0118238
0.0120335
0.0122342
0.0124267
0.012611
0.0127876
0.0129568
0.013119
0.0132744
0.0134233
0.013566
0.0137029
0.0138342
0.0139601
0.014081
0.014197
0.0143084
0.0144153
0.0145181
0.0146168
0.0147116
0.0148029
0.0148906
0.014975
0.0150563
0.0151345
0.0152098
0.0152823
0.0153522
0.0154195
0.0154845
0.0155471
0.0156075
0.0156658
0.015722
0.0157763
0.0158287
0.0158794
0.0159283
0.0159756
0.0160214
0.0160656
0.0161084
0.0161497
0.0161898
0.0162285
0.0162661
0.0163024
0.0163376
0.0163717
0.0164048
0.0164368
0.0164679
0.016498
0.0165273
0.0165556
0.0165832
0.0166099
0.0166358
0.016661
0.0166855
0.0167092
0.0167323
0.0167548
0.0167766
0.0167978
0.0168185
0.0168386
0.0168581
0.0168771
0.0168956
0.0169136
0.0169311
0.0169482
0.0169649
0.0169811
0.0169969
0.0170123
0.0170273
0.0170419
0.0170562
0.0170701
0.0170837
0.0170969
0.0171099
0.0171225
0.0171348
0.0171468
0.0171586
0.0171701
0.0171813
0.0171922
0.017203
0.0172134
0.0172237
0.0172337
0.0172435
0.017253
0.0172624
0.0172716
0.0172806
0.0172893
0.0172979
0.0173064
0.0173146
0.0173227
0.0173306
0.0173384
0.017346
0.0173535
0.0173608
0.017368
0.0173751
0.017382
0.0173888
0.0173956
0.0174021
0.0174086
0.017415
0.0174213
0.0174274
0.0174336
0.0174395
0.0174454
0.0174511
0.0174569
0.0174623
0.017468
0.0174731
0.0174787
0.0174836
0.0174891
0.0174938
0.0174993
0.0175038
0.0175094
0.0175137
0.0175196
0.0175237
0.01753
0.0175341
0.0175439
0.00375061
0.00375654
0.0037709
0.00377849
0.00377797
0.00377302
0.00376074
0.00373979
0.00371455
0.00368542
0.00365369
0.00362003
0.00358418
0.00354803
0.00351037
0.00347315
0.00343583
0.00339876
0.00336374
0.00332933
0.00329756
0.00326952
0.00324373
0.00322298
0.00320772
0.00319645
0.00319693
0.00320337
0.0032192
0.00325018
0.00329512
0.00335575
0.00343401
0.00353252
0.00365234
0.00379454
0.00395968
0.00414774
0.00435842
0.00458982
0.00484101
0.0051087
0.00539123
0.00568499
0.00598783
0.00629647
0.00660885
0.00692222
0.00723497
0.00754501
0.00785119
0.00815207
0.00844684
0.00873463
0.00901493
0.00928742
0.00955163
0.00980776
0.0100554
0.0102949
0.010526
0.010749
0.010964
0.0111712
0.0113709
0.0115632
0.0117484
0.0119267
0.0120984
0.0122636
0.0124227
0.0125759
0.0127234
0.0128654
0.0130022
0.0131339
0.0132608
0.0133831
0.0135009
0.0136146
0.0137241
0.0138297
0.0139316
0.0140299
0.0141248
0.0142164
0.0143048
0.0143902
0.0144727
0.0145524
0.0146295
0.014704
0.014776
0.0148457
0.0149131
0.0149783