/*--------------------------------*- C++ -*----------------------------------*\
  =========                 |
  \\      /  F ield         | OpenFOAM: The Open Source CFD Toolbox
   \\    /   O peration     | Website:  https://openfoam.org
    \\  /    A nd           | Version:  12
     \\/     M anipulation  |
\*---------------------------------------------------------------------------*/
FoamFile
{
    format      ascii;
    class       volScalarField;
    location    "800";
    object      nut;
}
// * * * * * * * * * * * * * * * * * * * * * * * * * * * * * * * * * * * * * //

dimensions      [0 2 -1 0 0 0 0];

internalField   nonuniform List<scalar> 
20000
(
1.76054e-06
6.61329e-07
7.32548e-07
9.77618e-07
1.13845e-06
1.26662e-06
1.39372e-06
1.52833e-06
1.6398e-06
1.74224e-06
1.81157e-06
1.88688e-06
1.93501e-06
1.98304e-06
2.02383e-06
2.06123e-06
2.08967e-06
2.11433e-06
2.13397e-06
2.15184e-06
2.16525e-06
2.17646e-06
2.18525e-06
2.19228e-06
2.1982e-06
2.20206e-06
2.20487e-06
2.20656e-06
2.20702e-06
2.20679e-06
2.20607e-06
2.2045e-06
2.20226e-06
2.19972e-06
2.19666e-06
2.19329e-06
2.18977e-06
2.18591e-06
2.18167e-06
2.17741e-06
2.17286e-06
2.16829e-06
2.16352e-06
2.15869e-06
2.1538e-06
2.14883e-06
2.14374e-06
2.13869e-06
2.13354e-06
2.12845e-06
2.12331e-06
2.11823e-06
2.11308e-06
2.10798e-06
2.10291e-06
2.09787e-06
2.09284e-06
2.08784e-06
2.08289e-06
2.07796e-06
2.07308e-06
2.06823e-06
2.06342e-06
2.05867e-06
2.05393e-06
2.04927e-06
2.04465e-06
2.04008e-06
2.03556e-06
2.03109e-06
2.02666e-06
2.02228e-06
2.01795e-06
2.01368e-06
2.00945e-06
2.00528e-06
2.00115e-06
1.99708e-06
1.99305e-06
1.98907e-06
1.98515e-06
1.98127e-06
1.97744e-06
1.97366e-06
1.96992e-06
1.96623e-06
1.96259e-06
1.95899e-06
1.95544e-06
1.95194e-06
1.94848e-06
1.94506e-06
1.94168e-06
1.93835e-06
1.93506e-06
1.93181e-06
1.9286e-06
1.92544e-06
1.92231e-06
1.91923e-06
1.91618e-06
1.91317e-06
1.9102e-06
1.90727e-06
1.90437e-06
1.90152e-06
1.89869e-06
1.89591e-06
1.89315e-06
1.89044e-06
1.88776e-06
1.88511e-06
1.88249e-06
1.87991e-06
1.87736e-06
1.87484e-06
1.87235e-06
1.8699e-06
1.86747e-06
1.86508e-06
1.86271e-06
1.86038e-06
1.85807e-06
1.85579e-06
1.85354e-06
1.85132e-06
1.84913e-06
1.84696e-06
1.84482e-06
1.8427e-06
1.84061e-06
1.83855e-06
1.83651e-06
1.83449e-06
1.83251e-06
1.83054e-06
1.8286e-06
1.82668e-06
1.82479e-06
1.82291e-06
1.82107e-06
1.81924e-06
1.81743e-06
1.81565e-06
1.81389e-06
1.81215e-06
1.81043e-06
1.80873e-06
1.80705e-06
1.80539e-06
1.80375e-06
1.80213e-06
1.80053e-06
1.79895e-06
1.79739e-06
1.79584e-06
1.79432e-06
1.79281e-06
1.79132e-06
1.78985e-06
1.78839e-06
1.78696e-06
1.78554e-06
1.78413e-06
1.78274e-06
1.78137e-06
1.78002e-06
1.77868e-06
1.77736e-06
1.77606e-06
1.77477e-06
1.7735e-06
1.77224e-06
1.771e-06
1.76977e-06
1.76856e-06
1.76736e-06
1.76618e-06
1.76501e-06
1.76384e-06
1.7627e-06
1.76155e-06
1.76043e-06
1.7593e-06
1.75822e-06
1.75708e-06
1.75604e-06
1.75488e-06
1.75391e-06
1.75271e-06
1.75186e-06
1.75053e-06
1.74985e-06
1.74838e-06
1.7478e-06
1.74634e-06
1.74575e-06
1.74425e-06
1.74377e-06
1.74146e-06
3.08549e-05
2.66404e-05
2.94447e-05
3.91724e-05
4.69985e-05
5.46638e-05
6.26699e-05
7.10324e-05
7.83458e-05
8.5164e-05
9.03947e-05
9.59462e-05
9.99253e-05
0.000103966
0.000107528
0.000110816
0.000113587
0.000116095
0.000118291
0.000120329
0.000122081
0.000123668
0.000125075
0.000126348
0.000127512
0.000128529
0.000129454
0.000130282
0.000131013
0.000131675
0.000132281
0.000132814
0.000133287
0.000133716
0.000134095
0.000134436
0.00013475
0.000135023
0.000135259
0.000135475
0.000135659
0.000135826
0.000135969
0.000136094
0.000136202
0.000136292
0.000136365
0.000136427
0.000136473
0.000136513
0.000136539
0.000136558
0.000136565
0.000136566
0.00013656
0.000136547
0.000136528
0.000136502
0.000136472
0.000136437
0.000136398
0.000136354
0.000136306
0.000136256
0.0001362
0.000136144
0.000136084
0.000136023
0.000135959
0.000135893
0.000135826
0.000135756
0.000135686
0.000135614
0.000135541
0.000135467
0.000135392
0.000135316
0.00013524
0.000135163
0.000135085
0.000135007
0.000134929
0.000134851
0.000134772
0.000134693
0.000134614
0.000134535
0.000134456
0.000134377
0.000134298
0.000134219
0.000134141
0.000134062
0.000133984
0.000133906
0.000133828
0.000133751
0.000133674
0.000133597
0.000133521
0.000133445
0.00013337
0.000133295
0.00013322
0.000133146
0.000133073
0.000133
0.000132927
0.000132855
0.000132783
0.000132712
0.000132642
0.000132572
0.000132502
0.000132433
0.000132365
0.000132297
0.00013223
0.000132163
0.000132097
0.000132031
0.000131966
0.000131902
0.000131838
0.000131774
0.000131712
0.000131649
0.000131588
0.000131527
0.000131466
0.000131406
0.000131347
0.000131288
0.000131229
0.000131171
0.000131114
0.000131058
0.000131001
0.000130946
0.000130891
0.000130836
0.000130782
0.000130729
0.000130676
0.000130624
0.000130572
0.00013052
0.00013047
0.000130419
0.000130369
0.00013032
0.000130271
0.000130223
0.000130175
0.000130128
0.000130081
0.000130035
0.000129989
0.000129943
0.000129899
0.000129854
0.00012981
0.000129767
0.000129724
0.000129681
0.000129639
0.000129598
0.000129557
0.000129516
0.000129476
0.000129436
0.000129397
0.000129359
0.00012932
0.000129283
0.000129245
0.000129209
0.000129172
0.000129136
0.0001291
0.000129065
0.000129029
0.000128994
0.00012896
0.000128925
0.000128891
0.000128856
0.000128824
0.000128787
0.000128761
0.000128718
0.0001287
0.000128649
0.000128637
0.000128586
0.000128574
0.000128522
0.000128517
0.000128408
0.000184607
6.36387e-05
4.74302e-05
5.26707e-05
6.47058e-05
8.11601e-05
9.89847e-05
0.000117454
0.000134279
0.000150379
0.000163978
0.000177864
0.000189181
0.000200397
0.000210636
0.000220251
0.000228697
0.000236581
0.000243725
0.000250429
0.000256427
0.000262004
0.000267109
0.000271847
0.00027626
0.000280296
0.000284029
0.000287496
0.000290689
0.000293667
0.000296463
0.000299035
0.000301422
0.000303662
0.000305742
0.000307691
0.000309538
0.000311249
0.000312841
0.000314348
0.000315751
0.000317081
0.000318323
0.000319494
0.000320602
0.000321638
0.000322611
0.000323532
0.000324395
0.000325218
0.000325991
0.000326726
0.000327412
0.000328067
0.000328688
0.000329275
0.000329829
0.000330355
0.000330854
0.000331326
0.000331774
0.000332199
0.000332601
0.000332984
0.000333344
0.000333689
0.000334016
0.000334327
0.000334622
0.000334902
0.000335168
0.000335421
0.000335661
0.000335889
0.000336106
0.000336313
0.000336509
0.000336696
0.000336873
0.000337042
0.000337202
0.000337355
0.0003375
0.000337637
0.000337768
0.000337893
0.000338011
0.000338123
0.00033823
0.000338331
0.000338427
0.000338519
0.000338605
0.000338687
0.000338765
0.000338839
0.000338909
0.000338975
0.000339038
0.000339098
0.000339154
0.000339207
0.000339258
0.000339305
0.00033935
0.000339392
0.000339432
0.00033947
0.000339505
0.000339538
0.000339569
0.000339599
0.000339626
0.000339652
0.000339675
0.000339698
0.000339719
0.000339738
0.000339756
0.000339773
0.000339788
0.000339803
0.000339816
0.000339828
0.000339839
0.000339849
0.000339858
0.000339866
0.000339873
0.000339879
0.000339885
0.00033989
0.000339894
0.000339897
0.0003399
0.000339902
0.000339904
0.000339905
0.000339905
0.000339905
0.000339905
0.000339904
0.000339903
0.000339901
0.000339899
0.000339897
0.000339894
0.000339891
0.000339888
0.000339885
0.000339881
0.000339877
0.000339873
0.000339868
0.000339863
0.000339859
0.000339854
0.000339849
0.000339843
0.000339838
0.000339832
0.000339827
0.000339822
0.000339816
0.00033981
0.000339805
0.000339799
0.000339794
0.000339788
0.000339783
0.000339777
0.000339773
0.000339767
0.000339763
0.000339757
0.000339755
0.000339749
0.000339747
0.00033974
0.000339739
0.000339731
0.000339731
0.000339721
0.000339723
0.000339712
0.000339715
0.000339702
0.000339705
0.000339693
0.000339695
0.000339689
0.000339683
0.00033969
0.000339669
0.00033969
0.000339668
0.000339688
0.000339677
0.000339697
0.000339625
0.000741315
0.000184422
0.000105277
7.55219e-05
7.64222e-05
8.81083e-05
0.000104054
0.000124334
0.000145403
0.000167331
0.000187647
0.000208487
0.000227436
0.000245893
0.000263219
0.000279644
0.000294307
0.000308322
0.000321203
0.000333396
0.000344455
0.000354893
0.000364548
0.000373616
0.000382125
0.000390011
0.000397388
0.000404309
0.000410767
0.000416858
0.000422572
0.00042793
0.000432962
0.000437717
0.000442182
0.000446406
0.000450435
0.000454207
0.000457765
0.000461156
0.000464352
0.000467401
0.000470284
0.000473028
0.000475647
0.000478123
0.000480477
0.000482725
0.00048486
0.000486908
0.000488856
0.000490725
0.000492495
0.0004942
0.000495833
0.000497394
0.000498887
0.000500319
0.000501693
0.00050301
0.000504274
0.000505487
0.000506652
0.000507772
0.000508845
0.000509882
0.000510878
0.000511839
0.000512762
0.000513653
0.00051451
0.000515337
0.000516134
0.000516904
0.000517647
0.000518364
0.000519057
0.000519728
0.000520374
0.000521
0.000521606
0.000522192
0.000522759
0.000523308
0.000523839
0.000524354
0.000524853
0.000525337
0.000525806
0.000526261
0.000526702
0.00052713
0.000527545
0.000527948
0.00052834
0.00052872
0.00052909
0.000529449
0.000529799
0.000530138
0.000530469
0.00053079
0.000531103
0.000531407
0.000531704
0.000531993
0.000532274
0.000532548
0.000532815
0.000533075
0.000533329
0.000533577
0.000533818
0.000534054
0.000534284
0.000534508
0.000534727
0.000534942
0.000535151
0.000535355
0.000535554
0.00053575
0.00053594
0.000536127
0.00053631
0.000536488
0.000536663
0.000536834
0.000537001
0.000537165
0.000537326
0.000537483
0.000537637
0.000537788
0.000537936
0.000538081
0.000538223
0.000538362
0.000538499
0.000538633
0.000538765
0.000538894
0.000539021
0.000539146
0.000539268
0.000539388
0.000539507
0.000539623
0.000539737
0.000539849
0.000539959
0.000540068
0.000540175
0.00054028
0.000540383
0.000540485
0.000540585
0.000540684
0.000540781
0.000540876
0.00054097
0.000541064
0.000541155
0.000541246
0.000541334
0.000541423
0.000541509
0.000541596
0.000541681
0.000541766
0.000541848
0.000541932
0.000542012
0.000542094
0.000542172
0.000542256
0.000542332
0.000542415
0.000542487
0.000542569
0.000542637
0.000542719
0.000542783
0.000542868
0.000542927
0.000543013
0.000543065
0.000543152
0.000543202
0.000543289
0.000543344
0.000543421
0.000543491
0.000543549
0.000543638
0.00054369
0.000543779
0.000543852
0.000543933
0.000543965
0.00150222
0.00049133
0.000263211
0.000158021
0.000116018
0.00010322
0.000105629
0.000117578
0.000134651
0.00015707
0.000180575
0.000205624
0.000230093
0.000253984
0.000276868
0.000299145
0.000319791
0.000339552
0.000358179
0.000375994
0.000392295
0.000408027
0.00042268
0.000436629
0.000449773
0.000462053
0.000473658
0.000484613
0.000494911
0.000504699
0.000513895
0.0005226
0.000530835
0.000538648
0.00054604
0.000553077
0.000559764
0.000566115
0.000572131
0.000577888
0.000583343
0.000588567
0.000593532
0.000598284
0.000602837
0.000607161
0.000611298
0.000615263
0.000619049
0.000622693
0.000626177
0.000629529
0.000632724
0.000635816
0.000638785
0.000641636
0.000644376
0.000647016
0.000649559
0.000652007
0.000654367
0.000656641
0.000658835
0.000660952
0.00066299
0.000664969
0.000666876
0.000668722
0.000670504
0.00067223
0.000673899
0.000675516
0.000677081
0.000678598
0.000680068
0.000681493
0.000682876
0.000684219
0.000685519
0.000686783
0.000688012
0.000689204
0.000690363
0.00069149
0.000692585
0.00069365
0.000694687
0.000695696
0.000696677
0.000697634
0.000698564
0.000699471
0.000700355
0.000701216
0.000702056
0.000702875
0.000703673
0.000704452
0.000705214
0.000705956
0.000706681
0.000707389
0.000708081
0.000708757
0.000709417
0.000710063
0.000710694
0.000711311
0.000711915
0.000712506
0.000713083
0.000713649
0.000714203
0.000714746
0.000715276
0.000715797
0.000716306
0.000716806
0.000717295
0.000717775
0.000718245
0.000718707
0.000719159
0.000719604
0.000720039
0.000720467
0.000720886
0.000721298
0.000721703
0.0007221
0.00072249
0.000722873
0.00072325
0.000723619
0.000723983
0.00072434
0.000724692
0.000725037
0.000725377
0.000725711
0.00072604
0.000726364
0.000726682
0.000726995
0.000727304
0.000727608
0.000727907
0.000728201
0.000728491
0.000728777
0.000729058
0.000729335
0.000729609
0.000729878
0.000730144
0.000730405
0.000730663
0.000730918
0.000731169
0.000731416
0.00073166
0.000731902
0.000732139
0.000732374
0.000732605
0.000732835
0.000733061
0.000733285
0.000733506
0.000733726
0.000733941
0.000734157
0.000734367
0.000734579
0.000734783
0.000734994
0.000735195
0.000735403
0.000735595
0.0007358
0.000735985
0.000736188
0.000736365
0.00073657
0.000736739
0.000736943
0.0007371
0.000737304
0.000737454
0.000737659
0.000737812
0.000738006
0.00073817
0.000738344
0.000738527
0.000738694
0.000738874
0.000739072
0.000739232
0.000739427
0.00202514
0.000999455
0.000588277
0.000356104
0.000242877
0.000176837
0.000145647
0.000134419
0.000134974
0.000145429
0.000161857
0.000183371
0.00020756
0.000233386
0.000259497
0.000285872
0.000311554
0.000336609
0.000360579
0.000383837
0.000405663
0.00042666
0.000446479
0.000465513
0.000483393
0.000500257
0.000516405
0.000531719
0.000546221
0.000560097
0.000573149
0.000585623
0.000597488
0.000608788
0.000619539
0.000629828
0.000639598
0.000648963
0.000657874
0.000666427
0.00067456
0.000682372
0.000689841
0.000696983
0.000703848
0.000710411
0.00071671
0.000722757
0.000728556
0.000734147
0.00073951
0.00074468
0.000749628
0.000754432
0.000759051
0.000763496
0.000767785
0.000771928
0.000775928
0.000779788
0.000783518
0.000787122
0.000790607
0.000793978
0.000797234
0.000800401
0.000803459
0.000806425
0.000809298
0.000812084
0.000814785
0.000817409
0.000819953
0.000822424
0.000824825
0.000827157
0.000829424
0.00083163
0.000833771
0.000835858
0.000837889
0.000839864
0.000841788
0.000843661
0.000845486
0.000847265
0.000848999
0.00085069
0.000852339
0.000853947
0.000855516
0.000857048
0.000858542
0.000860002
0.000861428
0.000862821
0.000864181
0.000865511
0.000866813
0.000868084
0.000869328
0.000870544
0.000871735
0.0008729
0.00087404
0.000875157
0.00087625
0.000877321
0.00087837
0.000879398
0.000880405
0.000881393
0.00088236
0.00088331
0.00088424
0.000885154
0.000886049
0.000886928
0.000887791
0.000888638
0.000889469
0.000890285
0.000891087
0.000891875
0.000892648
0.000893409
0.000894155
0.00089489
0.000895611
0.00089632
0.000897018
0.000897704
0.000898379
0.000899042
0.000899695
0.000900337
0.00090097
0.000901592
0.000902204
0.000902807
0.000903401
0.000903986
0.000904562
0.000905129
0.000905688
0.000906238
0.000906781
0.000907316
0.000907843
0.000908362
0.000908875
0.000909379
0.000909878
0.000910369
0.000910853
0.00091133
0.000911802
0.000912267
0.000912726
0.000913178
0.000913625
0.000914066
0.000914502
0.000914932
0.000915356
0.000915776
0.00091619
0.000916601
0.000917005
0.000917408
0.000917803
0.000918197
0.000918582
0.000918968
0.000919343
0.000919726
0.000920095
0.000920471
0.000920827
0.000921196
0.000921541
0.000921905
0.000922237
0.000922599
0.00092292
0.00092328
0.000923583
0.000923939
0.00092423
0.000924585
0.000924875
0.00092522
0.000925514
0.000925841
0.000926145
0.000926468
0.000926762
0.000927126
0.00092738
0.000927802
0.00226807
0.0015454
0.00104246
0.000695813
0.000495141
0.000353973
0.000271972
0.000215454
0.000184268
0.000169895
0.000166832
0.000173432
0.00018701
0.000206234
0.000228966
0.000254361
0.000280965
0.000308316
0.000335482
0.000362553
0.000388747
0.000414281
0.000438799
0.000462511
0.000485219
0.000506854
0.000527623
0.000547519
0.000566531
0.000584794
0.000601964
0.000618587
0.000634442
0.000649586
0.000664074
0.000677988
0.000691198
0.000703919
0.000716061
0.00072775
0.000738896
0.000749642
0.00075995
0.000769818
0.000779334
0.000788472
0.000797268
0.000805727
0.000813868
0.000821729
0.000829287
0.000836587
0.000843609
0.000850409
0.000856977
0.000863317
0.000869447
0.000875383
0.00088112
0.000886669
0.00089204
0.000897241
0.000902278
0.000907156
0.000911885
0.000916487
0.000920937
0.000925261
0.000929455
0.000933531
0.000937488
0.000941337
0.000945076
0.000948714
0.000952252
0.000955694
0.000959046
0.00096231
0.000965484
0.000968584
0.000971603
0.000974542
0.000977409
0.000980205
0.000982933
0.000985595
0.000988192
0.000990729
0.000993205
0.000995624
0.000997986
0.00100029
0.00100255
0.00100476
0.00100691
0.00100902
0.00101108
0.0010131
0.00101508
0.00101701
0.00101891
0.00102076
0.00102258
0.00102436
0.0010261
0.00102781
0.00102948
0.00103112
0.00103273
0.00103431
0.00103586
0.00103738
0.00103887
0.00104033
0.00104177
0.00104318
0.00104456
0.00104592
0.00104725
0.00104857
0.00104985
0.00105112
0.00105237
0.00105359
0.00105479
0.00105597
0.00105714
0.00105828
0.0010594
0.00106051
0.0010616
0.00106267
0.00106373
0.00106476
0.00106578
0.00106679
0.00106778
0.00106875
0.00106972
0.00107066
0.00107159
0.00107251
0.00107342
0.00107431
0.00107519
0.00107605
0.00107691
0.00107775
0.00107858
0.0010794
0.00108021
0.001081
0.00108179
0.00108256
0.00108333
0.00108408
0.00108483
0.00108556
0.00108629
0.001087
0.00108771
0.00108841
0.0010891
0.00108978
0.00109045
0.00109111
0.00109177
0.00109242
0.00109306
0.0010937
0.00109432
0.00109494
0.00109555
0.00109616
0.00109676
0.00109736
0.00109795
0.00109854
0.0010991
0.00109968
0.00110023
0.0011008
0.00110134
0.0011019
0.00110241
0.00110297
0.00110346
0.00110401
0.00110448
0.00110503
0.0011055
0.00110603
0.00110649
0.00110701
0.00110747
0.00110799
0.00110842
0.001109
0.00110937
0.00111008
0.00235559
0.00196642
0.00150125
0.00111652
0.000855275
0.000645657
0.000506375
0.000396968
0.000323034
0.000267778
0.000232161
0.000212177
0.000203266
0.000204419
0.00021317
0.000228288
0.000247992
0.000271296
0.00029671
0.000323718
0.000351264
0.000379073
0.000406594
0.000433721
0.000460232
0.000485945
0.000510834
0.000534943
0.000558137
0.000580623
0.000602065
0.00062277
0.00064268
0.000661793
0.000680214
0.000697931
0.000714759
0.000731135
0.000746801
0.000761927
0.000776386
0.000790413
0.000803868
0.00081678
0.000829279
0.000841312
0.000852929
0.000864113
0.000874917
0.000885361
0.000895415
0.000905146
0.000914543
0.000923637
0.000932445
0.000940962
0.000949203
0.000957197
0.00096493
0.000972427
0.000979692
0.000986742
0.000993578
0.00100022
0.00100665
0.00101292
0.001019
0.00102491
0.00103066
0.00103625
0.00104168
0.00104697
0.00105212
0.00105713
0.00106202
0.00106677
0.00107141
0.00107593
0.00108033
0.00108464
0.00108883
0.00109292
0.00109691
0.00110081
0.00110462
0.00110834
0.00111197
0.00111552
0.00111899
0.00112239
0.0011257
0.00112895
0.00113212
0.00113522
0.00113826
0.00114123
0.00114414
0.001147
0.00114979
0.00115253
0.00115521
0.00115783
0.00116041
0.00116293
0.00116541
0.00116784
0.00117022
0.00117255
0.00117485
0.0011771
0.0011793
0.00118147
0.0011836
0.00118569
0.00118774
0.00118976
0.00119174
0.00119369
0.0011956
0.00119748
0.00119933
0.00120115
0.00120293
0.00120469
0.00120642
0.00120812
0.00120979
0.00121144
0.00121306
0.00121465
0.00121622
0.00121777
0.00121929
0.00122079
0.00122226
0.00122372
0.00122515
0.00122656
0.00122795
0.00122932
0.00123067
0.001232
0.00123331
0.0012346
0.00123588
0.00123713
0.00123837
0.00123959
0.0012408
0.00124199
0.00124316
0.00124432
0.00124546
0.00124659
0.0012477
0.0012488
0.00124988
0.00125095
0.00125201
0.00125305
0.00125408
0.00125509
0.0012561
0.00125709
0.00125807
0.00125903
0.00125999
0.00126094
0.00126187
0.0012628
0.00126371
0.00126461
0.00126551
0.00126639
0.00126726
0.00126813
0.00126899
0.00126984
0.00127067
0.00127151
0.00127232
0.00127314
0.00127392
0.00127473
0.00127549
0.00127629
0.00127702
0.0012778
0.00127851
0.00127928
0.00127997
0.00128074
0.00128141
0.00128216
0.00128281
0.00128358
0.00128418
0.00128502
0.00128552
0.00128659
0.00237523
0.00222135
0.00187401
0.00152476
0.00125236
0.00100919
0.00082883
0.00067548
0.00055963
0.000463322
0.000390993
0.000333032
0.000291215
0.000264136
0.000247905
0.000241766
0.000243904
0.00025313
0.000267925
0.000287304
0.000309897
0.000334887
0.000361343
0.000388702
0.000416454
0.000444239
0.000471718
0.000498845
0.000525322
0.000551288
0.000576437
0.000600874
0.000624559
0.000647484
0.000669643
0.000691147
0.000711753
0.000731768
0.000751037
0.000769721
0.000787642
0.000805146
0.000821864
0.000838001
0.000853705
0.000868846
0.000883509
0.000897643
0.000911362
0.000924622
0.000937407
0.000949818
0.000961839
0.00097348
0.000984777
0.000995718
0.00100633
0.00101665
0.00102663
0.00103632
0.00104574
0.00105489
0.00106378
0.00107242
0.00108081
0.00108899
0.00109694
0.00110467
0.0011122
0.00111953
0.00112666
0.00113362
0.00114039
0.001147
0.00115343
0.00115971
0.00116584
0.00117182
0.00117765
0.00118335
0.00118891
0.00119434
0.00119964
0.00120482
0.00120989
0.00121484
0.00121968
0.00122441
0.00122905
0.00123358
0.00123801
0.00124235
0.0012466
0.00125076
0.00125483
0.00125882
0.00126273
0.00126657
0.00127032
0.001274
0.00127761
0.00128115
0.00128462
0.00128803
0.00129137
0.00129465
0.00129787
0.00130103
0.00130413
0.00130718
0.00131017
0.0013131
0.00131599
0.00131883
0.00132161
0.00132435
0.00132705
0.00132969
0.0013323
0.00133486
0.00133737
0.00133985
0.00134229
0.00134468
0.00134704
0.00134936
0.00135165
0.0013539
0.00135611
0.00135829
0.00136044
0.00136255
0.00136463
0.00136669
0.00136871
0.0013707
0.00137266
0.00137459
0.0013765
0.00137838
0.00138023
0.00138206
0.00138386
0.00138563
0.00138738
0.00138911
0.00139081
0.00139249
0.00139415
0.00139579
0.0013974
0.001399
0.00140057
0.00140212
0.00140365
0.00140516
0.00140666
0.00140813
0.00140959
0.00141102
0.00141244
0.00141384
0.00141523
0.0014166
0.00141795
0.00141928
0.0014206
0.00142191
0.00142319
0.00142447
0.00142573
0.00142698
0.00142821
0.00142943
0.00143064
0.00143184
0.00143301
0.00143419
0.00143534
0.00143649
0.00143761
0.00143874
0.00143983
0.00144093
0.001442
0.00144308
0.00144411
0.00144517
0.00144616
0.0014472
0.00144817
0.00144921
0.00145013
0.00145117
0.00145205
0.00145312
0.00145392
0.00145508
0.00145574
0.00145724
0.00237155
0.0023459
0.0021317
0.00185905
0.00161702
0.00137809
0.00118491
0.00100995
0.0008668
0.000740658
0.000637424
0.000546135
0.000474098
0.00041245
0.000363827
0.000328695
0.000304179
0.000289305
0.000283252
0.000284849
0.000292882
0.000306383
0.000324186
0.000345373
0.000369024
0.000394477
0.000420985
0.000448239
0.000475691
0.000503259
0.000530575
0.000557552
0.000584048
0.000610027
0.00063535
0.000660142
0.000684155
0.000707573
0.000730263
0.000752373
0.000773718
0.000794542
0.00081468
0.000834138
0.000853076
0.000871415
0.00088924
0.000906458
0.000923276
0.000939483
0.000955158
0.000970452
0.000985287
0.000999672
0.00101366
0.00102722
0.00104043
0.00105327
0.0010657
0.00107781
0.00108959
0.00110105
0.0011122
0.00112306
0.00113362
0.00114391
0.00115394
0.0011637
0.00117321
0.00118249
0.00119153
0.00120035
0.00120895
0.00121735
0.00122554
0.00123354
0.00124135
0.00124898
0.00125642
0.0012637
0.00127082
0.00127777
0.00128457
0.00129122
0.00129773
0.00130409
0.00131031
0.00131641
0.00132238
0.00132822
0.00133394
0.00133954
0.00134503
0.00135041
0.00135568
0.00136084
0.00136591
0.00137088
0.00137575
0.00138053
0.00138521
0.00138981
0.00139433
0.00139876
0.00140311
0.00140738
0.00141157
0.00141569
0.00141973
0.00142371
0.00142761
0.00143145
0.00143522
0.00143893
0.00144257
0.00144616
0.00144968
0.00145315
0.00145656
0.00145991
0.00146321
0.00146646
0.00146966
0.0014728
0.0014759
0.00147895
0.00148195
0.00148491
0.00148782
0.00149068
0.00149351
0.00149629
0.00149903
0.00150173
0.0015044
0.00150702
0.00150961
0.00151216
0.00151467
0.00151715
0.0015196
0.00152201
0.00152439
0.00152673
0.00152905
0.00153133
0.00153358
0.0015358
0.001538
0.00154016
0.0015423
0.00154441
0.00154649
0.00154854
0.00155057
0.00155258
0.00155455
0.00155651
0.00155844
0.00156034
0.00156222
0.00156408
0.00156592
0.00156773
0.00156953
0.0015713
0.00157305
0.00157478
0.00157649
0.00157819
0.00157986
0.00158152
0.00158315
0.00158477
0.00158637
0.00158796
0.00158953
0.00159109
0.00159262
0.00159414
0.00159563
0.00159712
0.00159858
0.00160003
0.00160145
0.00160288
0.00160426
0.00160565
0.00160698
0.00160835
0.00160964
0.00161101
0.00161224
0.00161362
0.00161477
0.00161619
0.00161724
0.00161877
0.00161963
0.00162162
0.00236341
0.00238915
0.00228602
0.00209807
0.00191021
0.00170389
0.00152188
0.00134839
0.00119766
0.0010584
0.000937445
0.000826453
0.000731045
0.000644752
0.000570263
0.00050653
0.000451928
0.000408302
0.000375266
0.00035094
0.000335447
0.000327984
0.000327497
0.000333227
0.00034423
0.000359664
0.000378524
0.000400186
0.000423813
0.000448974
0.000475095
0.000501852
0.00052888
0.000556029
0.000582993
0.000609793
0.000636154
0.00066213
0.000687556
0.00071252
0.000736858
0.000760663
0.0007839
0.000806479
0.000828518
0.000849953
0.00087087
0.000891167
0.000910991
0.000930252
0.000948938
0.000967147
0.000984878
0.00100211
0.00101891
0.00103523
0.00105118
0.00106667
0.00108169
0.00109639
0.0011107
0.00112465
0.00113823
0.00115148
0.00116438
0.00117698
0.00118927
0.00120123
0.00121292
0.00122433
0.00123546
0.00124633
0.00125694
0.00126732
0.00127744
0.00128735
0.00129703
0.00130648
0.00131573
0.00132477
0.00133362
0.00134228
0.00135075
0.00135904
0.00136715
0.0013751
0.00138288
0.0013905
0.00139797
0.00140528
0.00141245
0.00141948
0.00142637
0.00143312
0.00143974
0.00144624
0.00145261
0.00145887
0.001465
0.00147103
0.00147694
0.00148274
0.00148844
0.00149404
0.00149953
0.00150494
0.00151024
0.00151545
0.00152058
0.00152561
0.00153056
0.00153543
0.00154022
0.00154492
0.00154955
0.00155411
0.00155859
0.001563
0.00156733
0.0015716
0.0015758
0.00157994
0.00158401
0.00158802
0.00159197
0.00159586
0.00159969
0.00160347
0.00160718
0.00161085
0.00161446
0.00161802
0.00162152
0.00162498
0.00162839
0.00163174
0.00163506
0.00163832
0.00164154
0.00164472
0.00164786
0.00165095
0.001654
0.001657
0.00165997
0.0016629
0.0016658
0.00166865
0.00167147
0.00167425
0.00167699
0.0016797
0.00168238
0.00168502
0.00168763
0.00169021
0.00169275
0.00169527
0.00169775
0.0017002
0.00170263
0.00170502
0.00170738
0.00170972
0.00171203
0.00171431
0.00171657
0.0017188
0.00172101
0.00172319
0.00172535
0.00172748
0.00172959
0.00173168
0.00173374
0.00173579
0.00173781
0.00173981
0.00174179
0.00174375
0.00174568
0.00174759
0.00174948
0.00175134
0.00175319
0.00175501
0.00175681
0.00175859
0.00176032
0.00176208
0.00176374
0.0017655
0.00176709
0.00176887
0.00177034
0.00177217
0.00177351
0.00177547
0.00177658
0.00177913
0.00235738
0.0023931
0.00236229
0.00224924
0.00212022
0.00196202
0.00180767
0.00165258
0.00151014
0.00137367
0.00124965
0.00113254
0.00102597
0.000927281
0.000837247
0.000755527
0.000679747
0.000614695
0.00055574
0.000504257
0.000463007
0.000429846
0.000404393
0.000386841
0.000376671
0.000373091
0.000375429
0.000383043
0.000395059
0.000410834
0.000429607
0.000450815
0.000473818
0.000498247
0.000523583
0.000549626
0.000575993
0.000602564
0.000629086
0.000655514
0.000681683
0.000707522
0.000733023
0.00075804
0.000782628
0.000806701
0.000830323
0.000853397
0.000875994
0.000898084
0.000919632
0.00094067
0.000961226
0.000981272
0.00100086
0.00101995
0.00103862
0.00105685
0.00107457
0.00109191
0.00110883
0.00112536
0.00114148
0.00115724
0.0011726
0.00118766
0.00120233
0.00121661
0.00123063
0.00124432
0.00125769
0.00127077
0.00128355
0.00129606
0.00130828
0.00132025
0.00133196
0.0013434
0.0013546
0.00136557
0.00137632
0.00138684
0.00139714
0.00140723
0.00141712
0.00142681
0.0014363
0.00144562
0.00145474
0.00146368
0.00147246
0.00148106
0.00148951
0.00149779
0.00150592
0.0015139
0.00152173
0.00152942
0.00153697
0.00154438
0.00155166
0.00155882
0.00156584
0.00157275
0.00157953
0.0015862
0.00159276
0.0015992
0.00160554
0.00161177
0.0016179
0.00162393
0.00162986
0.0016357
0.00164144
0.00164709
0.00165265
0.00165813
0.00166351
0.00166882
0.00167404
0.00167919
0.00168426
0.00168925
0.00169417
0.00169901
0.00170379
0.00170849
0.00171313
0.0017177
0.0017222
0.00172664
0.00173102
0.00173534
0.00173959
0.00174379
0.00174793
0.00175202
0.00175604
0.00176002
0.00176394
0.00176781
0.00177163
0.0017754
0.00177912
0.00178279
0.00178642
0.00178999
0.00179353
0.00179701
0.00180046
0.00180386
0.00180722
0.00181054
0.00181381
0.00181705
0.00182025
0.00182341
0.00182653
0.00182961
0.00183266
0.00183567
0.00183864
0.00184158
0.00184449
0.00184736
0.0018502
0.00185301
0.00185578
0.00185853
0.00186125
0.00186393
0.00186659
0.00186922
0.00187182
0.00187439
0.00187694
0.00187946
0.00188195
0.00188442
0.00188686
0.00188927
0.00189164
0.001894
0.00189632
0.00189863
0.00190088
0.00190314
0.00190531
0.00190754
0.00190963
0.00191185
0.00191384
0.00191609
0.00191794
0.00192025
0.00192192
0.00192439
0.0019258
0.001929
0.00235431
0.00238294
0.00238912
0.00233299
0.00225416
0.00214687
0.00202847
0.00190186
0.00177876
0.0016563
0.00154035
0.0014282
0.00132239
0.00122208
0.00112677
0.00103781
0.000953398
0.000875137
0.000802333
0.000733626
0.000673463
0.000617466
0.000568189
0.00052702
0.000492821
0.000465171
0.000444698
0.000430911
0.000423267
0.000421358
0.000424606
0.000432453
0.000444196
0.000459322
0.000477176
0.000497317
0.000519199
0.000542475
0.000566748
0.000591764
0.000617287
0.000643069
0.000669022
0.000694929
0.000720748
0.000746339
0.000771702
0.00079673
0.000821416
0.000845727
0.000869622
0.000893076
0.000916105
0.000938672
0.000960809
0.000982484
0.00100372
0.00102454
0.00104488
0.0010648
0.00108429
0.00110338
0.00112204
0.00114033
0.00115819
0.00117571
0.00119284
0.00120957
0.00122597
0.00124202
0.00125773
0.00127312
0.00128817
0.00130292
0.00131735
0.00133152
0.00134537
0.00135891
0.00137221
0.00138525
0.00139802
0.00141054
0.00142281
0.00143484
0.00144664
0.00145822
0.00146957
0.00148072
0.00149163
0.00150235
0.00151287
0.0015232
0.00153334
0.0015433
0.00155307
0.00156268
0.0015721
0.00158137
0.00159047
0.00159942
0.00160821
0.00161685
0.00162534
0.00163369
0.0016419
0.00164998
0.00165792
0.00166573
0.00167341
0.00168097
0.00168841
0.00169573
0.00170294
0.00171003
0.00171701
0.00172389
0.00173065
0.00173732
0.00174388
0.00175035
0.00175672
0.00176299
0.00176917
0.00177527
0.00178127
0.00178719
0.00179302
0.00179877
0.00180444
0.00181002
0.00181554
0.00182097
0.00182633
0.00183161
0.00183683
0.00184197
0.00184705
0.00185206
0.001857
0.00186187
0.00186669
0.00187144
0.00187613
0.00188075
0.00188532
0.00188983
0.00189429
0.00189869
0.00190303