/*--------------------------------*- C++ -*----------------------------------*\
  =========                 |
  \\      /  F ield         | OpenFOAM: The Open Source CFD Toolbox
   \\    /   O peration     | Website:  https://openfoam.org
    \\  /    A nd           | Version:  12
     \\/     M anipulation  |
\*---------------------------------------------------------------------------*/
FoamFile
{
    format      ascii;
    class       volScalarField;
    location    "800";
    object      p;
}
// * * * * * * * * * * * * * * * * * * * * * * * * * * * * * * * * * * * * * //

dimensions      [0 2 -2 0 0 0 0];

internalField   nonuniform List<scalar> 
20000
(
0.261435
0.140167
0.113861
0.111984
0.109626
0.107608
0.106253
0.105084
0.104033
0.103002
0.102009
0.101068
0.100161
0.0992981
0.0984732
0.0976755
0.096897
0.0961223
0.095362
0.0946243
0.0938923
0.0931673
0.0924542
0.0917497
0.0910556
0.0903636
0.0896807
0.0890003
0.0883285
0.0876575
0.0869952
0.0863344
0.085679
0.0850265
0.0843775
0.0837324
0.0830926
0.0824545
0.08182
0.0811884
0.080559
0.0799344
0.0793109
0.0786921
0.0780739
0.0774599
0.0768472
0.0762387
0.0756309
0.0750274
0.0744249
0.0738257
0.0732283
0.0726336
0.0720409
0.0714508
0.0708626
0.0702763
0.0696928
0.069111
0.0685316
0.0679539
0.0673783
0.0668048
0.0662328
0.0656633
0.0650953
0.0645297
0.0639654
0.0634033
0.0628426
0.0622839
0.0617267
0.0611716
0.0606179
0.0600661
0.0595158
0.0589672
0.0584202
0.0578746
0.0573308
0.0567884
0.0562477
0.0557083
0.0551706
0.0546342
0.0540993
0.0535658
0.0530336
0.052503
0.0519737
0.0514458
0.0509191
0.0503939
0.0498699
0.0493472
0.0488258
0.0483055
0.0477867
0.047269
0.0467526
0.0462373
0.0457234
0.0452105
0.0446989
0.0441883
0.0436789
0.0431707
0.0426635
0.0421576
0.0416525
0.0411488
0.0406459
0.0401443
0.0396435
0.039144
0.0386453
0.0381478
0.0376512
0.0371556
0.036661
0.0361674
0.0356747
0.0351831
0.0346923
0.0342025
0.0337136
0.0332257
0.0327387
0.0322525
0.0317673
0.0312829
0.0307995
0.0303168
0.0298351
0.0293542
0.0288742
0.0283949
0.0279166
0.0274391
0.0269624
0.0264864
0.0260113
0.025537
0.0250635
0.0245907
0.0241188
0.0236476
0.0231772
0.0227075
0.0222386
0.0217704
0.021303
0.0208363
0.0203703
0.0199051
0.0194406
0.0189768
0.0185137
0.0180513
0.0175896
0.0171286
0.0166683
0.0162087
0.0157498
0.0152916
0.014834
0.0143772
0.013921
0.0134655
0.0130106
0.0125564
0.012103
0.0116502
0.0111981
0.0107466
0.0102961
0.00984587
0.0093969
0.00894795
0.00850067
0.00805291
0.00760749
0.00716085
0.00671763
0.00627194
0.00583134
0.00538634
0.00494903
0.00450434
0.00407131
0.00362655
0.00319879
0.00275384
0.00233267
0.00188752
0.00147507
0.00102284
0.000634458
0.000115173
0.22502
0.138172
0.114532
0.112439
0.109891
0.107788
0.106393
0.105198
0.104128
0.103082
0.102078
0.101128
0.100213
0.0993446
0.0985146
0.0977128
0.0969306
0.0961529
0.0953902
0.0946502
0.0939162
0.0931894
0.0924749
0.091769
0.0910736
0.0903805
0.0896966
0.0890154
0.0883427
0.087671
0.087008
0.0863466
0.0856906
0.0850376
0.0843881
0.0837426
0.0831023
0.0824638
0.0818289
0.081197
0.0805673
0.0799424
0.0793186
0.0786995
0.0780811
0.0774669
0.0768539
0.0762452
0.0756372
0.0750335
0.0744309
0.0738315
0.0732339
0.072639
0.0720462
0.0714559
0.0708676
0.0702812
0.0696976
0.0691156
0.0685361
0.0679583
0.0673826
0.066809
0.0662369
0.0656673
0.0650992
0.0645335
0.0639691
0.0634069
0.0628462
0.0622874
0.0617302
0.0611749
0.0606212
0.0600693
0.059519
0.0589703
0.0584233
0.0578776
0.0573337
0.0567913
0.0562505
0.0557111
0.0551733
0.0546368
0.0541019
0.0535684
0.0530361
0.0525055
0.0519761
0.0514482
0.0509215
0.0503962
0.0498722
0.0493494
0.048828
0.0483077
0.0477888
0.047271
0.0467547
0.0462393
0.0457254
0.0452125
0.0447008
0.0441902
0.0436808
0.0431726
0.0426653
0.0421593
0.0416543
0.0411505
0.0406476
0.040146
0.0396452
0.0391456
0.0386469
0.0381494
0.0376527
0.0371572
0.0366625
0.0361689
0.0356762
0.0351845
0.0346937
0.0342039
0.033715
0.0332271
0.03274
0.0322538
0.0317686
0.0312842
0.0308007
0.0303181
0.0298364
0.0293554
0.0288754
0.0283961
0.0279178
0.0274402
0.0269635
0.0264876
0.0260125
0.0255381
0.0250646
0.0245918
0.0241199
0.0236486
0.0231782
0.0227085
0.0222396
0.0217714
0.021304
0.0208373
0.0203713
0.0199061
0.0194415
0.0189777
0.0185146
0.0180522
0.0175905
0.0171295
0.0166692
0.0162096
0.0157507
0.0152924
0.0148349
0.014378
0.0139218
0.0134663
0.0130114
0.0125572
0.0121038
0.0116509
0.0111989
0.0107474
0.0102969
0.00984661
0.00939764
0.00894867
0.0085014
0.00805362
0.00760821
0.00716156
0.00671833
0.00627264
0.00583204
0.00538702
0.00494972
0.00450502
0.00407199
0.00362724
0.00319946
0.00275455
0.00233335
0.00188825
0.00147582
0.00102359
0.000635319
0.000115899
0.209527
0.140261
0.11611
0.11315
0.110326
0.108107
0.106651
0.105411
0.104305
0.103232
0.102209
0.101243
0.100313
0.0994367
0.0985974
0.0977875
0.0969983
0.0962147
0.095447
0.0947026
0.0939644
0.0932342
0.0925166
0.091808
0.09111
0.0904146
0.0897287
0.0890456
0.0883712
0.087698
0.0870337
0.0863709
0.0857137
0.0850596
0.0844091
0.0837626
0.0831215
0.0824822
0.0818465
0.0812139
0.0805836
0.079958
0.0793336
0.078714
0.078095
0.0774803
0.0768669
0.0762578
0.0756494
0.0750453
0.0744423
0.0738425
0.0732446
0.0726494
0.0720563
0.0714657
0.0708771
0.0702905
0.0697066
0.0691244
0.0685446
0.0679666
0.0673907
0.0668169
0.0662446
0.0656748
0.0651065
0.0645407
0.0639761
0.0634138
0.0628529
0.0622939
0.0617365
0.0611812
0.0606273
0.0600753
0.0595248
0.058976
0.0584289
0.0578831
0.0573391
0.0567965
0.0562557
0.0557162
0.0551783
0.0546417
0.0541067
0.0535731
0.0530408
0.05251
0.0519805
0.0514525
0.0509257
0.0504004
0.0498763
0.0493535
0.048832
0.0483116
0.0477927
0.0472748
0.0467584
0.046243
0.045729
0.045216
0.0447043
0.0441937
0.0436842
0.0431759
0.0426686
0.0421626
0.0416575
0.0411536
0.0406507
0.040149
0.0396482
0.0391486
0.0386498
0.0381522
0.0376555
0.0371599
0.0366652
0.0361716
0.0356788
0.0351871
0.0346963
0.0342065
0.0337175
0.0332296
0.0327425
0.0322563
0.031771
0.0312865
0.0308031
0.0303204
0.0298386
0.0293576
0.0288776
0.0283983
0.02792
0.0274423
0.0269656
0.0264896
0.0260145
0.0255401
0.0250666
0.0245938
0.0241218
0.0236505
0.0231801
0.0227104
0.0222415
0.0217732
0.0213058
0.020839
0.0203731
0.0199078
0.0194432
0.0189794
0.0185163
0.0180538
0.0175921
0.0171311
0.0166708
0.0162112
0.0157522
0.015294
0.0148364
0.0143795
0.0139233
0.0134677
0.0130129
0.0125587
0.0121052
0.0116523
0.0112003
0.0107487
0.0102982
0.00984795
0.00939898
0.00894999
0.00850271
0.00805491
0.0076095
0.00716282
0.00671961
0.00627388
0.00583329
0.00538826
0.00495097
0.00450624
0.00407323
0.00362847
0.0032007
0.00275581
0.00233461
0.00188951
0.00147719
0.00102484
0.000636973
0.000116271
0.204012
0.141364
0.118028
0.113863
0.110787
0.108459
0.106939
0.105653
0.104513
0.103414
0.102372
0.10139
0.100446
0.0995594
0.0987092
0.0978891
0.097091
0.0963003
0.0955263
0.0947761
0.0940323
0.0932975
0.0925759
0.0918637
0.0911621
0.0904635
0.0897748
0.0890892
0.0884124
0.087737
0.0870707
0.086406
0.0857472
0.0850914
0.0844394
0.0837917
0.0831493
0.0825088
0.081872
0.0812383
0.0806071
0.0799807
0.0793554
0.0787349
0.0781152
0.0774998
0.0768857
0.076276
0.075667
0.0750623
0.0744587
0.0738585
0.0732601
0.0726645
0.0720709
0.0714799
0.0708909
0.0703038
0.0697196
0.069137
0.0685569
0.0679786
0.0674024
0.0668283
0.0662557
0.0656857
0.0651171
0.064551
0.0639862
0.0634236
0.0628625
0.0623033
0.0617457
0.0611902
0.0606361
0.0600839
0.0595333
0.0589843
0.0584369
0.0578909
0.0573469
0.0568041
0.0562631
0.0557234
0.0551854
0.0546487
0.0541135
0.0535798
0.0530474
0.0525165
0.0519869
0.0514588
0.0509319
0.0504064
0.0498822
0.0493593
0.0488377
0.0483172
0.0477982
0.0472803
0.0467637
0.0462483
0.0457342
0.0452211
0.0447093
0.0441986
0.043689
0.0431807
0.0426733
0.0421672
0.041662
0.0411581
0.0406551
0.0401534
0.0396525
0.0391528
0.038654
0.0381563
0.0376596
0.0371639
0.0366691
0.0361755
0.0356826
0.0351909
0.0347
0.0342101
0.0337211
0.0332331
0.0327459
0.0322597
0.0317744
0.0312899
0.0308064
0.0303236
0.0298418
0.0293608
0.0288807
0.0284014
0.027923
0.0274453
0.0269686
0.0264926
0.0260174
0.025543
0.0250694
0.0245966
0.0241246
0.0236533
0.0231828
0.022713
0.0222441
0.0217758
0.0213083
0.0208416
0.0203756
0.0199102
0.0194457
0.0189818
0.0185186
0.0180562
0.0175944
0.0171334
0.016673
0.0162134
0.0157544
0.0152962
0.0148385
0.0143816
0.0139254
0.0134698
0.013015
0.0125607
0.0121073
0.0116543
0.0112023
0.0107507
0.0103002
0.00984987
0.00940088
0.00895187
0.00850458
0.00805675
0.00761134
0.00716463
0.00672142
0.00627566
0.00583508
0.00539001
0.00495274
0.00450798
0.00407497
0.00363021
0.00320243
0.00275755
0.00233638
0.00189126
0.00147909
0.00102661
0.000639124
0.000116125
0.198029
0.140841
0.119809
0.114759
0.111224
0.108765
0.107179
0.105856
0.104697
0.103585
0.102534
0.10154
0.100585
0.09969
0.0988297
0.0980001
0.0971939
0.0963963
0.0956163
0.0948601
0.0941106
0.0933712
0.0926452
0.0919293
0.0912236
0.0905214
0.0898296
0.0891411
0.0884617
0.0877838
0.0871151
0.0864483
0.0857875
0.0851299
0.0844761
0.083827
0.083183
0.082541
0.081903
0.081268
0.0806357
0.0800081
0.0793819
0.0787605
0.0781398
0.0775235
0.0769086
0.0762981
0.0756884
0.0750831
0.0744788
0.0738779
0.0732789
0.0726828
0.0720886
0.0714971
0.0709076
0.0703201
0.0697354
0.0691524
0.0685719
0.0679932
0.0674167
0.0668421
0.0662692
0.0656989
0.06513
0.0645635
0.0639984
0.0634356
0.0628741
0.0623147
0.0617569
0.0612011
0.0606468
0.0600943
0.0595435
0.0589943
0.0584467
0.0579005
0.0573562
0.0568133
0.0562721
0.0557323
0.0551941
0.0546572
0.0541219
0.053588
0.0530554
0.0525244
0.0519946
0.0514664
0.0509393
0.0504137
0.0498894
0.0493663
0.0488446
0.048324
0.0478049
0.0472869
0.0467702
0.0462546
0.0457404
0.0452272
0.0447153
0.0442045
0.0436949
0.0431864
0.042679
0.0421728
0.0416675
0.0411635
0.0406604
0.0401586
0.0396576
0.0391579
0.038659
0.0381613
0.0376644
0.0371687
0.0366739
0.0361801
0.0356872
0.0351954
0.0347045
0.0342145
0.0337255
0.0332374
0.0327502
0.0322639
0.0317785
0.0312939
0.0308104
0.0303276
0.0298457
0.0293647
0.0288845
0.0284051
0.0279267
0.027449
0.0269722
0.0264961
0.0260209
0.0255464
0.0250728
0.0245999
0.0241279
0.0236566
0.023186
0.0227162
0.0222473
0.0217789
0.0213114
0.0208446
0.0203786
0.0199132
0.0194486
0.0189847
0.0185215
0.018059
0.0175973
0.0171362
0.0166758
0.0162161
0.0157571
0.0152988
0.0148412
0.0143842
0.013928
0.0134724
0.0130175
0.0125632
0.0121097
0.0116568
0.0112047
0.0107531
0.0103025
0.0098522
0.00940319
0.00895414
0.00850684
0.00805898
0.00761356
0.00716682
0.00672361
0.0062778
0.00583723
0.00539212
0.00495486
0.00451007
0.00407706
0.00363229
0.0032045
0.00275961
0.00233848
0.00189329
0.00148129
0.00102869
0.000641369
0.000115428
0.191552
0.140205
0.120972
0.115803
0.111718
0.109059
0.107387
0.106017
0.10484
0.103722
0.102671
0.101674
0.100715
0.0998143
0.0989464
0.0981105
0.0972985
0.096495
0.0957101
0.0949488
0.094194
0.0934504
0.0927204
0.092001
0.091291
0.0905852
0.0898905
0.089199
0.0885169
0.0878363
0.087165
0.086496
0.0858332
0.0851735
0.0845179
0.0838671
0.0832215
0.0825779
0.0819385
0.0813021
0.0806685
0.0800398
0.0794123
0.0787899
0.0781681
0.0775509
0.0769351
0.0763237
0.0757132
0.0751071
0.074502
0.0739004
0.0733008
0.072704
0.0721092
0.0715171
0.070927
0.070339
0.0697538
0.0691703
0.0685893
0.0680101
0.0674332
0.0668582
0.0662849
0.0657142
0.0651449
0.0645781
0.0640126
0.0634495
0.0628877
0.0623279
0.0617698
0.0612137
0.0606592
0.0601065
0.0595553
0.0590059
0.0584581
0.0579117
0.0573672
0.056824
0.0562826
0.0557425
0.0552041
0.0546671
0.0541316
0.0535975
0.0530647
0.0525335
0.0520036
0.0514752
0.050948
0.0504222
0.0498977
0.0493745
0.0488527
0.0483319
0.0478127
0.0472945
0.0467777
0.046262
0.0457477
0.0452344
0.0447224
0.0442115
0.0437017
0.0431931
0.0426855
0.0421793
0.0416739
0.0411698
0.0406666
0.0401647
0.0396636
0.0391638
0.0386648
0.038167
0.0376701
0.0371743
0.0366794
0.0361855
0.0356926
0.0352007
0.0347097
0.0342197
0.0337305
0.0332424
0.0327551
0.0322687
0.0317833
0.0312986
0.030815
0.0303321
0.0298502
0.0293691
0.0288889
0.0284095
0.027931
0.0274532
0.0269764
0.0265002
0.026025
0.0255505
0.0250768
0.0246039
0.0241318
0.0236604
0.0231898
0.02272
0.0222509
0.0217826
0.021315
0.0208482
0.0203821
0.0199167
0.019452
0.0189881
0.0185249
0.0180623
0.0176005
0.0171394
0.016679
0.0162193
0.0157602
0.0153019
0.0148442
0.0143872
0.0139309
0.0134753
0.0130204
0.0125661
0.0121126
0.0116596
0.0112075
0.0107558
0.0103053
0.0098549
0.00940587
0.00895678
0.00850947
0.00806157
0.00761614
0.00716935
0.00672613
0.00628028
0.00583971
0.00539456
0.0049573
0.00451249
0.00407945
0.00363467
0.00320686
0.00276194
0.00234085
0.00189556
0.00148376
0.00103103
0.000643609
0.000114291
0.185561
0.140074
0.121694
0.116476
0.112262
0.109427
0.10761
0.106171
0.104961
0.103825
0.102771
0.101772
0.100817
0.0999191
0.0990491
0.0982116
0.0973976
0.0965901
0.095802
0.0950373
0.0942783
0.093531
0.0927977
0.0920753
0.0913614
0.0906524
0.089955
0.0892608
0.0885762
0.0878928
0.0872191
0.0865481
0.0858832
0.0852214
0.0845638
0.0839113
0.083264
0.0826188
0.081978
0.08134
0.080705
0.0800751
0.0794464
0.0788228
0.0781999
0.0775815
0.0769648
0.0763525
0.0757411
0.0751341
0.0745282
0.0739258
0.0733254
0.072728
0.0721325
0.0715398
0.070949
0.0703604
0.0697746
0.0691906
0.0686091
0.0680294
0.0674519
0.0668765
0.0663027
0.0657315
0.0651619
0.0645947
0.0640288
0.0634653
0.0629031
0.062343
0.0617846
0.0612282
0.0606733
0.0601203
0.0595689
0.0590191
0.058471
0.0579243
0.0573796
0.0568362
0.0562945
0.0557542
0.0552156
0.0546783
0.0541426
0.0536083
0.0530753
0.0525439
0.0520138
0.0514852
0.0509579
0.0504319
0.0499073
0.0493839
0.0488619
0.048341
0.0478216
0.0473032
0.0467863
0.0462705
0.045756
0.0452426
0.0447304
0.0442194
0.0437095
0.0432008
0.0426931
0.0421867
0.0416812
0.041177
0.0406737
0.0401717
0.0396705
0.0391706
0.0386715
0.0381736
0.0376766
0.0371807
0.0366857
0.0361917
0.0356987
0.0352067
0.0347156
0.0342255
0.0337363
0.033248
0.0327607
0.0322742
0.0317887
0.031304
0.0308203
0.0303374
0.0298554
0.0293742
0.028894
0.0284145
0.0279359
0.0274581
0.0269812
0.026505
0.0260296
0.0255551
0.0250813
0.0246083
0.0241362
0.0236648
0.0231941
0.0227242
0.0222552
0.0217868
0.0213192
0.0208522
0.0203861
0.0199207
0.019456
0.018992
0.0185287
0.0180661
0.0176043
0.0171431
0.0166826
0.0162229
0.0157638
0.0153054
0.0148477
0.0143907
0.0139344
0.0134787
0.0130237
0.0125694
0.0121158
0.0116628
0.0112107
0.010759
0.0103084
0.009858
0.00940893
0.00895981
0.00851247
0.00806454
0.00761908
0.00717225
0.00672901
0.00628312
0.00584253
0.00539734
0.00496007
0.00451523
0.00408216
0.00363737
0.00320952
0.00276457
0.00234351
0.00189804
0.0014865
0.0010336
0.000645843
0.00011279
0.180132
0.139801
0.12252
0.116923
0.112656
0.109872
0.107887
0.106342
0.105087
0.103923
0.102857
0.101847
0.10089
0.0999954
0.099126
0.0982915
0.0974808
0.0966731
0.0958851
0.0951199
0.0943584
0.0936087
0.0928732
0.0921489
0.0914318
0.0907202
0.0900206
0.0893242
0.0886376
0.0879515
0.0872756
0.0866027
0.0859361
0.0852722
0.0846128
0.0839585
0.0833095
0.0826627
0.0820205
0.0813809
0.0807446
0.0801135
0.0794835
0.0788587
0.0782346
0.0776151
0.0769974
0.0763841
0.0757717
0.0751639
0.0745571
0.0739538
0.0733527
0.0727545
0.0721582
0.0715649
0.0709734
0.0703841
0.0697977
0.0692131
0.068631
0.0680508
0.0674728
0.0668968
0.0663226
0.0657509
0.0651808
0.0646132
0.0640469
0.0634829
0.0629204
0.0623599
0.0618011
0.0612443
0.0606891
0.0601358
0.059584
0.059034
0.0584856
0.0579386
0.0573935
0.0568499
0.056308
0.0557674
0.0552285
0.054691
0.054155
0.0536205
0.0530873
0.0525557
0.0520254
0.0514965
0.050969
0.0504428
0.049918
0.0493944
0.0488722
0.0483511
0.0478316
0.0473131
0.046796
0.04628
0.0457654
0.0452518
0.0447395
0.0442283
0.0437183
0.0432094
0.0427016
0.0421951
0.0416895
0.0411851
0.0406817
0.0401796
0.0396783
0.0391782
0.038679
0.038181
0.0376839
0.0371879
0.0366928
0.0361987
0.0357056
0.0352135
0.0347223
0.0342321
0.0337428
0.0332545
0.032767
0.0322805
0.0317949
0.0313101
0.0308263
0.0303433
0.0298613
0.02938
0.0288997
0.0284201
0.0279415
0.0274636
0.0269866
0.0265103
0.0260349
0.0255603
0.0250865
0.0246134
0.0241412
0.0236697
0.0231991
0.0227291
0.0222599
0.0217915
0.0213238
0.0208569
0.0203907
0.0199252
0.0194604
0.0189964
0.018533
0.0180704
0.0176085
0.0171473
0.0166868
0.016227
0.0157679
0.0153094
0.0148517
0.0143946
0.0139382
0.0134825
0.0130275
0.0125731
0.0121196
0.0116665
0.0112143
0.0107626
0.0103119
0.00986151
0.00941241
0.00896324
0.00851587
0.00806789
0.00762241
0.00717554
0.00673227
0.00628634
0.00584572
0.00540049
0.00496318
0.00451833
0.0040852
0.00364039
0.0032125
0.0027675
0.00234645
0.00190075
0.0014895
0.00103637
0.000648075
0.000110964
0.17504
0.139437
0.123227
0.117469
0.112953
0.11018
0.108205
0.106553
0.105229
0.104031
0.102949
0.101922
0.100956
0.100057
0.0991817
0.0983477
0.0975405
0.0967348
0.0959506
0.0951886
0.0944278
0.0936781
0.0929426
0.092218
0.0914989
0.0907855
0.0900845
0.0893865
0.0886984
0.0880103
0.0873325
0.0866581
0.08599
0.0853243
0.0846632
0.0840074
0.0833569
0.0827087
0.0820652
0.081424
0.0807864
0.0801541
0.0795228
0.078897
0.0782717
0.0776511
0.0770324
0.0764181
0.0758047
0.0751961
0.0745882
0.0739841
0.0733822
0.0727833
0.0721862
0.0715922
0.0709999
0.07041
0.069823
0.0692377
0.0686551
0.0680742
0.0674957
0.0669191
0.0663443
0.0657723
0.0652016
0.0646335
0.0640668
0.0635024
0.0629394
0.0623785
0.0618193
0.0612622
0.0607066
0.0601529
0.0596008
0.0590504
0.0585017
0.0579543
0.057409
0.056865
0.0563228
0.055782
0.0552428
0.054705
0.0541688
0.053634
0.0531005
0.0525687
0.0520382
0.0515091
0.0509813
0.050455
0.0499299
0.0494062
0.0488838
0.0483625
0.0478427
0.047324
0.0468068
0.0462906
0.0457758
0.045262
0.0447496
0.0442382
0.043728
0.043219
0.0427111
0.0422044
0.0416986
0.0411942
0.0406906
0.0401884
0.0396869
0.0391868
0.0386874
0.0381893
0.037692
0.0371959
0.0367007
0.0362066
0.0357133
0.0352211
0.0347298
0.0342395
0.0337501
0.0332617
0.0327741
0.0322875
0.0318018
0.031317
0.0308331
0.03035
0.0298678
0.0293865
0.0289061
0.0284264
0.0279477
0.0274697
0.0269926
0.0265163
0.0260408
0.0255661
0.0250923
0.0246191
0.0241469
0.0236753
0.0232045
0.0227345
0.0222653
0.0217968
0.0213291
0.020862
0.0203958
0.0199302
0.0194654
0.0190013
0.0185379
0.0180752
0.0176133
0.017152
0.0166915
0.0162316
0.0157724
0.015314
0.0148561
0.014399
0.0139426
0.0134868
0.0130318
0.0125773
0.0121237
0.0116706
0.0112184
0.0107666
0.0103159
0.00986546
0.00941631
0.0089671
0.00851969
0.00807167
0.00762614
0.00717923
0.00673592
0.00628995
0.00584927
0.00540401
0.00496665
0.00452178
0.00408858
0.00364376
0.0032158
0.00277073
0.0023497
0.00190369
0.00149276
0.00103934
0.000650307
0.00010885
0.170209
0.139014
0.123791
0.117965
0.113346
0.110413
0.108424
0.106774
0.105407
0.104155
0.103049
0.102002
0.101027
0.100121
0.0992351
0.0983965
0.0975875
0.096779
0.0959967
0.0952381
0.0944794
0.0937323
0.0929995
0.0922773
0.0915582
0.0908446
0.0901435
0.089445
0.0887563
0.0880666
0.0873878
0.0867123
0.0860432
0.085376
0.0847135
0.0840565
0.0834048
0.0827553
0.0821108
0.0814681
0.0808295
0.0801962
0.0795635
0.0789368
0.0783103
0.0776887
0.0770691
0.0764539
0.0758396
0.07523
0.0746212
0.0740163
0.0734136
0.0728139
0.0722161
0.0716214
0.0710284
0.0704377
0.06985
0.0692642
0.0686809
0.0680994
0.0675204
0.0669432
0.0663679
0.0657953
0.0652242
0.0646556
0.0640883
0.0635235
0.0629601
0.0623987
0.0618391
0.0612816
0.0607256
0.0601715
0.059619
0.0590683
0.0585192
0.0579716
0.0574259
0.0568816
0.0563391
0.0557979
0.0552585
0.0547204
0.0541839
0.0536488
0.0531151
0.052583
0.0520522
0.0515229
0.0509949
0.0504683
0.049943
0.0494191
0.0488964
0.0483749
0.047855
0.0473361
0.0468187
0.0463023
0.0457873
0.0452734
0.0447607
0.0442492
0.0437389
0.0432297
0.0427215
0.0422147
0.0417088
0.0412042
0.0407005
0.0401981
0.0396965
0.0391962
0.0386967
0.0381985
0.0377011
0.0372048
0.0367095
0.0362152
0.0357219
0.0352296
0.0347381
0.0342477
0.0337582
0.0332697
0.032782
0.0322953
0.0318095
0.0313245
0.0308405
0.0303574
0.0298751
0.0293937
0.0289132
0.0284334
0.0279546
0.0274765
0.0269994
0.026523
0.0260474
0.0255726
0.0250987
0.0246255
0.0241531
0.0236815
0.0232107
0.0227406
0.0222713
0.0218027
0.0213349
0.0208678
0.0204015
0.0199359
0.019471
0.0190068
0.0185434
0.0180806
0.0176186
0.0171573
0.0166966
0.0162367
0.0157775
0.015319
0.0148611
0.0144039
0.0139475
0.0134916
0.0130365
0.012582
0.0121284
0.0116752
0.011223
0.0107711
0.0103204
0.00986986
0.00942066
0.0089714
0.00852394
0.00807588
0.0076303
0.00718334
0.00673998
0.00629396
0.00585323
0.00540793
0.0049705
0.00452561
0.00409232
0.00364747
0.00321943
0.00277428
0.00235324
0.00190688
0.00149627
0.00104249
0.000652556
0.000106486
0.165636
0.138501
0.124232
0.118394
0.113718
0.11072
0.108596
0.106954
0.105554
0.104293
0.103165
0.102091
0.101102
0.10019
0.0992924
0.0984489
0.0976357
0.0968208
0.0960365
0.0952773
0.0945172
0.0937706
0.0930403
0.0923216
0.0916039
0.0908922
0.090193
0.0894959
0.088808
0.0881179
0.0874389
0.0867631
0.0860937
0.0854255
0.0847619
0.0841043
0.0834517
0.0828013
0.082156
0.081512
0.0808726
0.0802385
0.0796048
0.0789773
0.0783497
0.0777272
0.0771068
0.0764907
0.0758756
0.0752652
0.0746554
0.0740498
0.0734464
0.072846
0.0722474
0.071652
0.0710583
0.0704669
0.0698786
0.0692922
0.0687083
0.0681262
0.0675467
0.0669689
0.066393
0.0658199
0.0652483
0.0646792
0.0641114
0.0635462
0.0629823
0.0624204
0.0618604
0.0613025
0.0607461
0.0601916
0.0596388
0.0590877
0.0585382
0.0579901
0.0574441
0.0568995
0.0563567
0.0558152
0.0552755
0.0547371
0.0542003
0.0536649
0.0531309
0.0525986
0.0520675
0.051538
0.0510097
0.0504829
0.0499573
0.0494332
0.0489103
0.0483886
0.0478684
0.0473493
0.0468316
0.0463151
0.0457999
0.0452857
0.0447729
0.0442612
0.0437507
0.0432413
0.042733
0.042226
0.04172
0.0412152
0.0407113
0.0402088
0.039707
0.0392066
0.038707
0.0382086
0.037711
0.0372146
0.0367192
0.0362248
0.0357313
0.0352388
0.0347473
0.0342568
0.0337671
0.0332785
0.0327907
0.0323039
0.0318179
0.0313329
0.0308488
0.0303655
0.0298832
0.0294016
0.028921
0.0284412
0.0279623
0.0274841
0.0270069
0.0265303
0.0260547
0.0255798
0.0251058
0.0246325
0.02416
0.0236883
0.0232174
0.0227473
0.0222779
0.0218092
0.0213413
0.0208742
0.0204078
0.0199421
0.0194771
0.0190129
0.0185494
0.0180866
0.0176245
0.0171631
0.0167024
0.0162424
0.0157831
0.0153245
0.0148666
0.0144094
0.0139528
0.013497
0.0130418
0.0125873
0.0121335
0.0116803
0.011228
0.0107761
0.0103253
0.00987475
0.00942549
0.00897617
0.00852865
0.00808054
0.0076349
0.00718789
0.00674447
0.00629841
0.00585759
0.00541226
0.00497474
0.00452983
0.00409643
0.00365156
0.00322341
0.00277816
0.00235709
0.00191035
0.0015
0.00104581
0.000654846
0.00010392
0.161326
0.137873
0.124556
0.118757
0.114058
0.111014
0.108821
0.107129
0.105658
0.104418
0.103257
0.102188
0.101188
0.100266
0.0993526
0.0985034
0.0976879
0.0968655
0.0960785
0.0953176
0.0945535
0.0938041
0.0930733
0.0923555
0.0916371
0.0909264
0.0902294
0.0895347
0.088849
0.0881597
0.0874821
0.0868075
0.086139
0.0854704
0.0848064
0.084149
0.0834961
0.0828451
0.0821995
0.0815545
0.0809145
0.0802798
0.0796454
0.0790173
0.0783888
0.0777656
0.0771446
0.0765278
0.075912
0.0753009
0.0746903
0.074084
0.0734799
0.0728789
0.0722796
0.0716837
0.0710893
0.0704971
0.0699083
0.0693213
0.0687369
0.0681542
0.0675742
0.0669957
0.0664193
0.0658458
0.0652736
0.0647041
0.0641358
0.0635702
0.0630058
0.0624434
0.061883
0.0613247
0.0607678
0.060213
0.0596598
0.0591083
0.0585585
0.05801
0.0574637
0.0569187
0.0563756
0.0558338
0.0552938
0.054755
0.0542179
0.0536823
0.0531479
0.0526153
0.052084
0.0515542
0.0510256
0.0504986
0.0499728
0.0494484
0.0489252
0.0484033
0.0478828
0.0473636
0.0468457
0.0463289
0.0458135
0.0452992
0.0447862
0.0442742
0.0437635
0.043254
0.0427455
0.0422383
0.0417321
0.0412271
0.0407231
0.0402204
0.0397185
0.0392179
0.0387181
0.0382196
0.0377219
0.0372253
0.0367297
0.0362352
0.0357415
0.035249
0.0347573
0.0342666
0.0337769
0.0332881
0.0328002
0.0323132
0.0318272
0.031342
0.0308578
0.0303744
0.029892
0.0294103
0.0289296
0.0284496
0.0279706
0.0274924
0.027015
0.0265384
0.0260627
0.0255877
0.0251136
0.0246402
0.0241677
0.0236958
0.0232249
0.0227546
0.0222852
0.0218164
0.0213484
0.0208812
0.0204147
0.0199489
0.0194839
0.0190196
0.018556
0.0180931
0.0176309
0.0171695
0.0167087
0.0162487
0.0157893
0.0153307
0.0148727
0.0144154
0.0139588
0.0135028
0.0130476
0.012593
0.0121392
0.0116859
0.0112336
0.0107816
0.0103308
0.00988013
0.00943081
0.00898144
0.00853385
0.00808568
0.00763996
0.00719291
0.00674941
0.00630331
0.00586239
0.00541703
0.00497939
0.00453446
0.00410092
0.00365602
0.00322774
0.00278239
0.00236126
0.00191412
0.00150395
0.00104928
0.000657197
0.000101211
0.157275
0.137127
0.124763
0.119053
0.114367
0.111287
0.109042
0.107298
0.105796
0.104532
0.103329
0.102279
0.101277
0.100325
0.0994225
0.0985636
0.0977428
0.0969119
0.0961218
0.0953608
0.0945921
0.093839
0.0931072
0.0923889
0.0916672
0.0909551
0.090258
0.089564
0.0888793
0.0881904
0.0875145
0.0868417
0.0861753
0.0855075
0.0848441
0.0841879
0.0835356
0.0828847
0.0822395
0.0815938
0.0809538
0.080319
0.0796842
0.0790558
0.0784265
0.0778028
0.0771814
0.0765642
0.0759478
0.0753364
0.0747249
0.074118
0.0735135
0.072912
0.0723121
0.0717158
0.0711206
0.0705279
0.0699386
0.0693511
0.0687662
0.0681829
0.0676025
0.0670235
0.0664465
0.0658726
0.0652999
0.0647299
0.0641612
0.0635952
0.0630303
0.0624675
0.0619066
0.061348
0.0607907
0.0602356
0.0596818
0.0591301
0.0585798
0.058031
0.0574843
0.0569391
0.0563956
0.0558534
0.0553131
0.054774
0.0542367
0.0537007
0.0531661
0.0526332
0.0521015
0.0515715
0.0510427
0.0505154
0.0499893
0.0494646
0.0489413
0.048419
0.0478984
0.0473789
0.0468608
0.0463438
0.0458282
0.0453136
0.0448004
0.0442883
0.0437774
0.0432676
0.0427589
0.0422516
0.0417452
0.04124
0.0407358
0.0402329
0.0397309
0.0392301
0.0387301
0.0382314
0.0377336
0.0372369
0.0367411
0.0362465
0.0357527
0.03526
0.0347681
0.0342774
0.0337874
0.0332985
0.0328105
0.0323234
0.0318372
0.0313519
0.0308676
0.0303841
0.0299015
0.0294197
0.0289389
0.0284589
0.0279798
0.0275014
0.0270239
0.0265472
0.0260714
0.0255963
0.0251221
0.0246486
0.024176
0.0237041
0.023233
0.0227626
0.0222931
0.0218242
0.0213562
0.0208889
0.0204223
0.0199564
0.0194913
0.0190269
0.0185633
0.0181003
0.017638
0.0171765
0.0167157
0.0162556
0.0157961
0.0153374
0.0148793
0.0144219
0.0139653
0.0135093
0.013054
0.0125993
0.0121454
0.0116921
0.0112397
0.0107877
0.0103367
0.00988605
0.00943664
0.00898721
0.00853955
0.00809133
0.00764552
0.00719842
0.00675482
0.00630867
0.00586765
0.00542224
0.00498447
0.00453952
0.00410582
0.00366089
0.00323245
0.00278697
0.00236574
0.00191821
0.00150813
0.00105289
0.000659617
9.8431e-05
0.153478
0.136272
0.124854
0.119281
0.114644
0.11154
0.10925
0.107464
0.105935
0.104642
0.103429
0.102363
0.101352
0.100374
0.0994937
0.0986265
0.0977834
0.0969648
0.0961703
0.0954061
0.0946323
0.0938747
0.0931422
0.0924246
0.0916986
0.0909844
0.0902866
0.089592
0.0889064
0.0882157
0.08754
0.0868678
0.0862026
0.0855352
0.0848726
0.0842182
0.0835672
0.0829174
0.0822735
0.0816277
0.0809885
0.0803542
0.0797195
0.0790914
0.0784617
0.0778377
0.0772164
0.0765988
0.0759821
0.0753706
0.0747585
0.0741512
0.0735464
0.0729445
0.0723441
0.0717475
0.0711518
0.0705586
0.0699689
0.069381
0.0687957
0.0682119
0.0676312
0.0670516
0.0664742
0.0658999
0.0653268
0.0647564
0.0641873
0.0636209
0.0630556
0.0624923
0.0619311
0.0613721
0.0608144
0.060259
0.0597048
0.0591527
0.0586021
0.0580529
0.0575059
0.0569603
0.0564165
0.055874
0.0553335
0.054794
0.0542564
0.0537201
0.0531851
0.052652
0.0521201
0.0515898
0.0510607
0.0505331
0.0500068
0.0494819
0.0489583
0.0484358
0.0479149
0.0473952
0.0468769
0.0463596
0.0458438
0.045329
0.0448156
0.0443032
0.0437922
0.0432822
0.0427733
0.0422658
0.0417591
0.0412539
0.0407495
0.0402464
0.0397441
0.0392432
0.0387431
0.0382442
0.0377462
0.0372493
0.0367534
0.0362586
0.0357646
0.0352718
0.0347798
0.0342889
0.0337988
0.0333098
0.0328216
0.0323344
0.0318481
0.0313627
0.0308782
0.0303946
0.0299119
0.02943
0.028949
0.0284688
0.0279896
0.0275111
0.0270336
0.0265567
0.0260808
0.0256056
0.0251313
0.0246577
0.024185
0.023713
0.0232418
0.0227713
0.0223017
0.0218328
0.0213646
0.0208972
0.0204306
0.0199646
0.0194994
0.0190349
0.0185711
0.0181081
0.0176458
0.0171842
0.0167233
0.016263
0.0158035
0.0153447
0.0148866
0.0144291
0.0139724
0.0135163
0.0130609
0.0126062
0.0121522
0.0116988
0.0112463
0.0107943
0.0103433
0.0098925
0.00944302
0.00899352
0.00854577
0.00809749
0.00765159
0.00720443
0.00676072
0.00631453
0.00587338
0.00542793
0.00499001
0.00454503
0.00411114
0.00366617
0.00323753
0.00279193
0.00237056
0.00192262
0.00151253
0.00105666
0.000662112
9.5655e-05
0.149931
0.13532
0.124833
0.119439
0.114883
0.111771
0.109447
0.107625
0.10607
0.104753
0.10353
0.102446
0.101425
0.100446
0.0995537
0.0986808
0.09782
0.0970193
0.0962214
0.0954392
0.0946722
0.0939178
0.0931806
0.092462
0.0917315
0.0910144
0.0903157
0.089621
0.0889349
0.0882412
0.0875648
0.0868923
0.0862271
0.0855583
0.084895
0.0842415
0.0835912
0.0829421
0.0822995
0.0816539
0.0810161
0.0803829
0.0797491
0.0791219
0.0784922
0.0778686
0.0772478
0.0766305
0.0760138
0.0754025
0.0747899
0.0741825
0.0735776
0.0729756
0.0723749
0.0717782
0.071182
0.0705884
0.0699985
0.0694103
0.0688247
0.0682406
0.0676596
0.0670795
0.0665018
0.0659272
0.0653538
0.0647831
0.0642136
0.0636469
0.0630811
0.0625174
0.0619559
0.0613967
0.0608387
0.0602829
0.0597284
0.059176
0.058625
0.0580754
0.0575282
0.0569823
0.0564382
0.0558954
0.0553546
0.0548148
0.054277
0.0537403
0.053205
0.0526717
0.0521395
0.0516089
0.0510795
0.0505518
0.0500252
0.0495001
0.0489762
0.0484534
0.0479323
0.0474123
0.0468938
0.0463763
0.0458603
0.0453453
0.0448317
0.0443191
0.0438078
0.0432976
0.0427885
0.0422808
0.041774
0.0412685
0.0407639
0.0402607
0.0397583
0.0392572
0.0387568
0.0382578
0.0377596
0.0372626
0.0367665
0.0362716
0.0357775
0.0352845
0.0347923
0.0343013
0.033811
0.0333219
0.0328335
0.0323462
0.0318598
0.0313742
0.0308896
0.0304058
0.029923
0.029441
0.0289599
0.0284796
0.0280003
0.0275216
0.027044
0.026567
0.026091
0.0256157
0.0251412
0.0246675
0.0241947
0.0237226
0.0232513
0.0227808
0.022311
0.021842