/*--------------------------------*- C++ -*----------------------------------*\
  =========                 |
  \\      /  F ield         | OpenFOAM: The Open Source CFD Toolbox
   \\    /   O peration     | Website:  https://openfoam.org
    \\  /    A nd           | Version:  12
     \\/     M anipulation  |
\*---------------------------------------------------------------------------*/
FoamFile
{
    format      ascii;
    class       surfaceScalarField;
    location    "800";
    object      phi;
}
// * * * * * * * * * * * * * * * * * * * * * * * * * * * * * * * * * * * * * //

dimensions      [0 3 -1 0 0 0 0];

internalField   nonuniform List<scalar> 
39700
(
0.000289049
0.000218413
0.000158807
0.000130242
0.000114183
4.46245e-05
9.67865e-05
1.73959e-05
8.76312e-05
9.15534e-06
8.1854e-05
5.77722e-06
7.80665e-05
3.78742e-06
7.53655e-05
2.70096e-06
7.33118e-05
2.05375e-06
7.16088e-05
1.70293e-06
7.01842e-05
1.42456e-06
6.89794e-05
1.20481e-06
6.79011e-05
1.07834e-06
6.6989e-05
9.12008e-07
6.61922e-05
7.96869e-07
6.54744e-05
7.17732e-07
6.48175e-05
6.56919e-07
6.421e-05
6.07515e-07
6.36448e-05
5.65257e-07
6.31255e-05
5.19285e-07
6.26352e-05
4.90227e-07
6.21728e-05
4.62466e-07
6.17353e-05
4.37447e-07
6.13242e-05
4.11182e-07
6.09369e-05
3.87228e-07
6.05639e-05
3.73007e-07
6.02096e-05
3.54356e-07
5.98678e-05
3.41794e-07
5.95421e-05
3.25633e-07
5.92284e-05
3.13744e-07
5.89284e-05
2.99953e-07
5.86372e-05
2.91206e-07
5.83574e-05
2.79812e-07
5.80875e-05
2.69907e-07
5.78258e-05
2.61691e-07
5.75728e-05
2.52989e-07
5.73297e-05
2.43162e-07
5.70926e-05
2.37021e-07
5.68631e-05
2.29498e-07
5.66408e-05
2.22367e-07
5.64238e-05
2.17023e-07
5.62142e-05
2.09596e-07
5.60092e-05
2.04946e-07
5.58113e-05
1.97883e-07
5.56178e-05
1.93561e-07
5.54295e-05
1.88241e-07
5.52452e-05
1.84302e-07
5.50666e-05
1.78598e-07
5.48914e-05
1.75259e-07
5.47215e-05
1.69864e-07
5.45553e-05
1.66248e-07
5.43932e-05
1.62103e-07
5.42343e-05
1.58818e-07
5.40797e-05
1.54685e-07
5.39283e-05
1.51332e-07
5.37806e-05
1.47717e-07
5.36361e-05
1.44483e-07
5.34944e-05
1.41674e-07
5.33562e-05
1.38261e-07
5.32206e-05
1.35568e-07
5.30881e-05
1.32489e-07
5.29582e-05
1.29924e-07
5.2831e-05
1.2718e-07
5.27065e-05
1.24482e-07
5.25841e-05
1.22403e-07
5.24645e-05
1.19622e-07
5.2347e-05
1.17546e-07
5.22321e-05
1.14888e-07
5.21191e-05
1.12974e-07
5.20085e-05
1.10583e-07
5.18999e-05
1.08638e-07
5.17933e-05
1.06567e-07
5.16885e-05
1.0477e-07
5.15859e-05
1.0269e-07
5.14849e-05
1.00916e-07
5.13859e-05
9.90251e-08
5.12886e-05
9.72813e-08
5.11931e-05
9.55315e-08
5.10993e-05
9.37636e-08
5.1007e-05
9.23381e-08
5.09164e-05
9.06003e-08
5.08272e-05
8.91833e-08
5.07397e-05
8.75384e-08
5.06535e-05
8.61879e-08
5.05689e-05
8.46325e-08
5.04856e-05
8.32897e-08
5.04037e-05
8.19028e-08
5.03232e-05
8.05124e-08
5.02438e-05
7.9326e-08
5.01659e-05
7.7966e-08
5.00891e-05
7.68014e-08
5.00136e-05
7.55021e-08
4.99392e-05
7.43851e-08
4.9866e-05
7.31789e-08
4.9794e-05
7.20368e-08
4.9723e-05
7.09412e-08
4.96532e-05
6.97976e-08
4.95844e-05
6.88542e-08
4.95167e-05
6.77126e-08
4.94499e-05
6.67877e-08
4.93842e-05
6.56956e-08
4.93194e-05
6.48151e-08
4.92556e-05
6.37514e-08
4.91927e-05
6.28949e-08
4.91308e-05
6.191e-08
4.90698e-05
6.10483e-08
4.90096e-05
6.01722e-08
4.89503e-05
5.92541e-08
4.88918e-05
5.85065e-08
4.88342e-05
5.75773e-08
4.87774e-05
5.68706e-08
4.87214e-05
5.59607e-08
4.86661e-05
5.52895e-08
4.86117e-05
5.43977e-08
4.8558e-05
5.3764e-08
4.8505e-05
5.29076e-08
4.84528e-05
5.22777e-08
4.84013e-05
5.14856e-08
4.83504e-05
5.08443e-08
4.83003e-05
5.01145e-08
4.82508e-05
4.9495e-08
4.8202e-05
4.87794e-08
4.81539e-05
4.81825e-08
4.81064e-05
4.74808e-08
4.80595e-05
4.6912e-08
4.80132e-05
4.62392e-08
4.79676e-05
4.56785e-08
4.79225e-05
4.50488e-08
4.7878e-05
4.44768e-08
4.78341e-05
4.39068e-08
4.77908e-05
4.33176e-08
4.7748e-05
4.28093e-08
4.77058e-05
4.22141e-08
4.7664e-05
4.1729e-08
4.76229e-05
4.11451e-08
4.75822e-05
4.06837e-08
4.75421e-05
4.01071e-08
4.75024e-05
3.96694e-08
4.74633e-05
3.91084e-08
4.74247e-05
3.86782e-08
4.73865e-05
3.81429e-08
4.73488e-05
3.77167e-08
4.73116e-05
3.72132e-08
4.72748e-05
3.67829e-08
4.72385e-05
3.63168e-08
4.72026e-05
3.58986e-08
4.71671e-05
3.54309e-08
4.71321e-05
3.50317e-08
4.70975e-05
3.45788e-08
4.70633e-05
3.41936e-08
4.70296e-05
3.37465e-08
4.69962e-05
3.33765e-08
4.69633e-05
3.29513e-08
4.69307e-05
3.25798e-08
4.68985e-05
3.21778e-08
4.68667e-05
3.18068e-08
4.68353e-05
3.14334e-08
4.68042e-05
3.10517e-08
4.67735e-05
3.0714e-08
4.67431e-05
3.03453e-08
4.67131e-05
3.00061e-08
4.66835e-05
2.96308e-08
4.66542e-05
2.93195e-08
4.66252e-05
2.89668e-08
4.65966e-05
2.86444e-08
4.65683e-05
2.82899e-08
4.65403e-05
2.79919e-08
4.65126e-05
2.76585e-08
4.64853e-05
2.73397e-08
4.64583e-05
2.70316e-08
4.64315e-05
2.67289e-08
4.64051e-05
2.64556e-08
4.63789e-05
2.6124e-08
4.63531e-05
2.58915e-08
4.63275e-05
2.55425e-08
4.63022e-05
2.53542e-08
4.62772e-05
2.4962e-08
4.62523e-05
2.49096e-08
4.62278e-05
2.44486e-08
4.62033e-05
2.45429e-08
4.61794e-05
2.39005e-08
4.61551e-05
2.42577e-08
4.61318e-05
2.33495e-08
4.61077e-05
2.41116e-08
4.60849e-05
2.27568e-08
4.60607e-05
2.41953e-08
4.60386e-05
2.21113e-08
4.6014e-05
2.45584e-08
4.59928e-05
2.12262e-08
4.59675e-05
2.53428e-08
4.59474e-05
2.00487e-08
4.59203e-05
2.70667e-08
4.59019e-05
1.84084e-08
4.58726e-05
2.93674e-08
4.58557e-05
1.68503e-08
4.58239e-05
3.17562e-08
4.58087e-05
1.52512e-08
4.5773e-05
3.56767e-08
4.57689e-05
4.0908e-09
1.13852e-07
0.000488266
0.000262025
0.000397813
0.000220694
0.000326641
0.000115797
0.000282374
6.16628e-05
0.000254839
3.66901e-05
0.000236496
2.41196e-05
0.000223528
1.67559e-05
0.000213784
1.24446e-05
0.000206133
9.70482e-06
0.000199854
7.98192e-06
0.000194619
6.66009e-06
0.000190196
5.6274e-06
0.000186356
4.91868e-06
0.000183054
4.21419e-06
0.000180165
3.68537e-06
0.000177589
3.29402e-06
0.000175266
2.97958e-06
0.000173159
2.71505e-06
0.00017123
2.49381e-06
0.000169467
2.282e-06
0.000167834
2.12349e-06
0.000166318
1.97824e-06
0.000164903
1.85261e-06
0.000163585
1.72887e-06
0.000162354
1.61879e-06
0.000161189
1.53827e-06
0.00016009
1.45332e-06
0.000159046
1.3851e-06
0.000158059
1.31295e-06
0.00015712
1.25297e-06
0.000156226
1.19377e-06
0.00015537
1.14726e-06
0.000154553
1.09699e-06
0.000153771
1.0519e-06
0.00015302
1.01295e-06
0.000152298
9.74258e-07
0.000151607
9.34374e-07
0.00015094
9.04309e-07
0.000150297
8.72003e-07
0.000149678
8.41687e-07
0.000149078
8.16608e-07
0.0001485
7.87709e-07
0.00014794
7.65364e-07
0.000147399
7.38707e-07
0.000146874
7.18328e-07
0.000146365
6.97303e-07
0.00014587
6.79163e-07
0.000145391
6.57991e-07
0.000144924
6.42149e-07
0.000144471
6.22444e-07
0.000144031
6.06705e-07
0.000143602
5.90685e-07
0.000143184
5.76752e-07
0.000142778
5.6111e-07
0.000142382
5.47546e-07
0.000141996
5.33716e-07
0.000141619
5.2093e-07
0.000141252
5.09438e-07
0.000140893
4.96844e-07
0.000140543
4.85994e-07
0.000140201
4.74501e-07
0.000139866
4.64367e-07
0.000139539
4.53957e-07
0.00013922
4.43876e-07
0.000138907
4.35305e-07
0.000138601
4.25414e-07
0.000138302
4.17083e-07
0.000138009
4.07685e-07
0.000137722
3.99965e-07
0.000137441
3.91423e-07
0.000137166
3.83869e-07
0.000136896
3.76261e-07
0.000136632
3.69367e-07
0.000136372
3.61906e-07
0.000136118
3.55191e-07
0.000135869
3.48326e-07
0.000135624
3.41857e-07
0.000135384
3.35443e-07
0.000135149
3.29084e-07
0.000134918
3.23547e-07
0.000134691
3.1747e-07
0.000134468
3.12104e-07
0.000134249
3.06309e-07
0.000134034
3.0122e-07
0.000133823
2.95741e-07
0.000133616
2.90775e-07
0.000133412
2.8578e-07
0.000133211
2.80827e-07
0.000133014
2.76387e-07
0.000132821
2.71628e-07
0.00013263
2.67326e-07
0.000132443
2.62782e-07
0.000132259
2.58671e-07
0.000132077
2.54402e-07
0.000131899
2.50323e-07
0.000131724
2.46375e-07
0.000131551
2.42373e-07
0.000131381
2.38825e-07
0.000131214
2.34935e-07
0.000131049
2.31511e-07
0.000130887
2.27769e-07
0.000130727
2.24496e-07
0.00013057
2.20868e-07
0.000130415
2.17725e-07
0.000130263
2.14321e-07
0.000130113
2.11225e-07
0.000129965
2.08108e-07
0.000129819
2.04949e-07
0.000129676
2.02173e-07
0.000129534
1.9906e-07
0.000129395
1.96399e-07
0.000129257
1.93369e-07
0.000129122
1.90833e-07
0.000128988
1.87886e-07
0.000128856
1.85481e-07
0.000128727
1.82647e-07
0.000128599
1.80284e-07
0.000128473
1.77632e-07
0.000128348
1.75286e-07
0.000128225
1.7281e-07
0.000128104
1.70567e-07
0.000127985
1.68145e-07
0.000127867
1.65981e-07
0.000127751
1.63617e-07
0.000127636
1.61549e-07
0.000127523
1.59277e-07
0.000127412
1.57262e-07
0.000127302
1.55109e-07
0.000127193
1.53102e-07
0.000127086
1.51106e-07
0.00012698
1.49093e-07
0.000126876
1.47259e-07
0.000126773
1.45269e-07
0.000126671
1.43504e-07
0.00012657
1.4156e-07
0.000126471
1.39869e-07
0.000126373
1.37965e-07
0.000126277
1.36349e-07
0.000126181
1.34498e-07
0.000126087
1.32922e-07
0.000125994
1.31149e-07
0.000125902
1.29602e-07
0.000125811
1.27918e-07
0.000125722
1.26385e-07
0.000125633
1.24803e-07
0.000125546
1.23318e-07
0.00012546
1.21752e-07
0.000125374
1.20329e-07
0.00012529
1.18804e-07
0.000125207
1.17429e-07
0.000125125
1.1594e-07
0.000125043
1.14616e-07
0.000124963
1.1318e-07
0.000124884
1.11873e-07
0.000124806
1.10511e-07
0.000124728
1.09219e-07
0.000124652
1.07927e-07
0.000124576
1.06634e-07
0.000124501
1.0544e-07
0.000124427
1.04189e-07
0.000124354
1.03002e-07
0.000124282
1.01752e-07
0.000124211
1.00639e-07
0.000124141
9.94471e-08
0.000124071
9.83299e-08
0.000124002
9.7145e-08
0.000123934
9.60911e-08
0.000123867
9.49525e-08
0.0001238
9.38812e-08
0.000123734
9.28076e-08
0.000123669
9.17895e-08
0.000123605
9.07851e-08
0.000123541
8.97577e-08
0.000123478
8.88311e-08
0.000123416
8.77969e-08
0.000123354
8.69223e-08
0.000123294
8.58939e-08
0.000123233
8.52797e-08
0.000123173
8.42078e-08
0.000123114
8.38156e-08
0.000123056
8.253e-08
0.000122997
8.25611e-08
0.00012294
8.09255e-08
0.000122882
8.15956e-08
0.000122826
7.93697e-08
0.000122769
8.11665e-08
0.000122713
7.78774e-08
0.000122656
8.13407e-08
0.000122601
7.60325e-08
0.000122544
8.24743e-08
0.00012249
7.36763e-08
0.000122431
8.60874e-08
0.000122379
7.0337e-08
0.000122318
9.11953e-08
0.000122267
6.77657e-08
0.000122202
9.63232e-08
0.000122149
6.79244e-08
0.000122081
1.03674e-07
0.000122034
5.15852e-08
2.65696e-07
0.000561758
0.000257734
0.000533662
0.00024879
0.00048896
0.0001605
0.000442259
0.000108364
0.000405034
7.39148e-05
0.000376227
5.29265e-05
0.000353827
3.91566e-05
0.000336078
3.01928e-05
0.000321763
2.40204e-05
0.000309967
1.97774e-05
0.000300106
1.65216e-05
0.000291757
1.39759e-05
0.00028458
1.20963e-05
0.000278357
1.04366e-05
0.000272903
9.13941e-06
0.000268058
8.1391e-06
0.000263724
7.31362e-06
0.000259822
6.61692e-06
0.000256279
6.03678e-06
0.000253055
5.50651e-06
0.000250095
5.08342e-06
0.00024737
4.70345e-06
0.000244845
4.37728e-06
0.000242506
4.06781e-06
0.00024033
3.79437e-06
0.00023829
3.57828e-06
0.000236378
3.36559e-06
0.000234577
3.18651e-06
0.000232881
3.00824e-06
0.000231278
2.85593e-06
0.00022976
2.71243e-06
0.000228316
2.59056e-06
0.000226945
2.46802e-06
0.00022564
2.35744e-06
0.000224393
2.25962e-06
0.000223201
2.16598e-06
0.000222063
2.0731e-06
0.00022097
1.99709e-06
0.000219922
1.91987e-06
0.000218916
1.84778e-06
0.000217947
1.786e-06
0.000217015
1.7198e-06
0.000216115
1.66466e-06
0.000215249
1.60474e-06
0.000214412
1.55507e-06
0.000213603
1.5063e-06
0.00021282
1.46244e-06
0.000212063
1.41522e-06
0.000211328
1.37664e-06
0.000210618
1.33326e-06
0.000209928
1.2963e-06
0.000209259
1.26005e-06
0.000208608
1.22739e-06
0.000207977
1.19267e-06
0.000207362
1.16172e-06
0.000206765
1.13087e-06
0.000206184
1.10191e-06
0.000205618
1.07556e-06
0.000205067
1.04798e-06
0.00020453
1.02337e-06
0.000204006
9.98128e-07
0.000203495
9.75301e-07
0.000202997
9.52367e-07
0.00020251
9.30208e-07
0.000202035
9.10641e-07
0.000201571
8.89456e-07
0.000201117
8.70758e-07
0.000200674
8.50731e-07
0.000200241
8.33372e-07
0.000199817
8.15092e-07
0.000199403
7.98391e-07
0.000198997
7.81906e-07
0.0001986
7.66718e-07
0.000198211
7.508e-07
0.00019783
7.36148e-07
0.000197457
7.21434e-07
0.000197091
7.07449e-07
0.000196733
6.93695e-07
0.000196382
6.8013e-07
0.000196037
6.6795e-07
0.0001957
6.55171e-07
0.000195368
6.43517e-07
0.000195043
6.31319e-07
0.000194724
6.20293e-07
0.000194411
6.08782e-07
0.000194104
5.98121e-07
0.000193802
5.87537e-07
0.000193506
5.77084e-07
0.000193215
5.67515e-07
0.000192929
5.57565e-07
0.000192648
5.48363e-07
0.000192372
5.38875e-07
0.0001921
5.30102e-07
0.000191833
5.21158e-07
0.000191571
5.12573e-07
0.000191313
5.04246e-07
0.00019106
4.95896e-07
0.00019081
4.88281e-07
0.000190565
4.80274e-07
0.000190323
4.72982e-07
0.000190086
4.6527e-07
0.000189852
4.58298e-07
0.000189622
4.50852e-07
0.000189396
4.44187e-07
0.000189173
4.37163e-07
0.000188953
4.30658e-07
0.000188737
4.24158e-07
0.000188525
4.1765e-07
0.000188315
4.11748e-07
0.000188109
4.05414e-07
0.000187905
3.99743e-07
0.000187705
3.93602e-07
0.000187508
3.88194e-07
0.000187313
3.82249e-07
0.000187122
3.77108e-07
0.000186933
3.71393e-07
0.000186747
3.66373e-07
0.000186564
3.60999e-07
0.000186383
3.56069e-07
0.000186205
3.51019e-07
0.000186029
3.46322e-07
0.000185856
3.41394e-07
0.000185685
3.36867e-07
0.000185516
3.32075e-07
0.00018535
3.27744e-07
0.000185186
3.23135e-07
0.000185025
3.18934e-07
0.000184865
3.14549e-07
0.000184708
3.10407e-07
0.000184553
3.06301e-07
0.000184399
3.02198e-07
0.000184248
2.98374e-07
0.000184099
2.9436e-07
0.000183952
2.90671e-07
0.000183807
2.86761e-07
0.000183664
2.83222e-07
0.000183522
2.79406e-07
0.000183382
2.76014e-07
0.000183245
2.72312e-07
0.000183109
2.69016e-07
0.000182974
2.65462e-07
0.000182842
2.6224e-07
0.000182711
2.58854e-07
0.000182581
2.55685e-07
0.000182454
2.5248e-07
0.000182328
2.49423e-07
0.000182203
2.46268e-07
0.00018208
2.43328e-07
0.000181959
2.40259e-07
0.000181839
2.37421e-07
0.00018172
2.34431e-07
0.000181603
2.31691e-07
0.000181487
2.28802e-07
0.000181373
2.2612e-07
0.00018126
2.23366e-07
0.000181149
2.20724e-07
0.000181039
2.181e-07
0.00018093
2.15487e-07
0.000180822
2.13028e-07
0.000180716
2.10502e-07
0.000180611
2.08083e-07
0.000180507
2.05579e-07
0.000180404
2.03282e-07
0.000180303
2.00882e-07
0.000180203
1.98613e-07
0.000180104
1.96238e-07
0.000180006
1.94081e-07
0.000179909
1.91788e-07
0.000179813
1.89638e-07
0.000179718
1.87445e-07
0.000179625
1.85407e-07
0.000179532
1.83323e-07
0.000179441
1.81324e-07
0.00017935
1.79341e-07
0.00017926
1.77401e-07
0.000179172
1.75463e-07
0.000179084
1.73616e-07
0.000178997
1.72001e-07
0.000178911
1.70238e-07
0.000178826
1.68867e-07
0.000178742
1.66984e-07
0.000178658
1.66071e-07
0.000178575
1.63949e-07
0.000178493
1.63735e-07
0.000178411
1.61138e-07
0.00017833
1.62226e-07
0.00017825
1.58619e-07
0.000178169
1.6169e-07
0.00017809
1.55792e-07
0.000178009
1.62686e-07
0.000177931
1.52364e-07
0.000177849
1.67543e-07
0.000177772
1.47814e-07
0.000177687
1.75473e-07
0.000177611
1.44637e-07
0.000177524
1.83364e-07
0.000177443
1.48767e-07
0.000177353
1.92937e-07
0.000177271
1.34119e-07
4.17732e-07
0.000603275
0.000238748
0.000602013
0.000250052
0.000586361
0.000176152
0.000559303
0.000135422
0.000528239
0.000104978
0.000498889
8.22766e-05
0.000472619
6.54269e-05
0.000449705
5.31068e-05
0.000430054
4.36711e-05
0.000413268
3.65641e-05
0.000398896
3.0893e-05
0.000386511
2.6361e-05
0.000375763
2.28446e-05
0.000366352
1.98473e-05
0.000358052
1.74396e-05
0.000350674
1.55171e-05
0.000344085
1.39029e-05
0.00033816
1.25416e-05
0.000332795
1.14012e-05
0.000327922
1.03803e-05
0.000323467
9.53851e-06
0.000319379
8.79082e-06
0.000315608
8.14854e-06
0.000312123
7.55277e-06
0.000308889
7.02835e-06
0.000305871
6.59652e-06
0.000303052
6.18421e-06
0.000300408
5.83087e-06
0.000297927
5.48862e-06
0.00029559
5.19301e-06
0.000293383
4.91978e-06
0.000291294
4.67947e-06
0.000289316
4.44616e-06
0.000287438
4.2353e-06
0.000285652
4.04605e-06
0.000283949
3.86906e-06
0.000282325
3.69708e-06
0.000280772
3.54968e-06
0.000279287
3.40464e-06
0.000277865
3.26966e-06
0.000276499
3.15187e-06
0.000275189
3.03021e-06
0.000273928
2.92533e-06
0.000272716
2.81672e-06
0.000271548
2.72303e-06
0.000270422
2.63265e-06
0.000269334
2.55016e-06
0.000268285
2.46496e-06
0.000267269
2.39225e-06
0.000266288
2.31466e-06
0.000265337
2.24651e-06
0.000264417
2.18065e-06
0.000263524
2.12028e-06
0.000262658
2.05812e-06
0.000261818
2.00186e-06
0.000261003
1.94651e-06
0.00026021
1.89411e-06
0.00025944
1.8461e-06
0.000258691
1.79716e-06
0.000257961
1.75268e-06
0.000257252
1.70787e-06
0.00025656
1.66676e-06
0.000255887
1.62603e-06
0.00025523
1.58669e-06
0.000254589
1.55125e-06
0.000253965
1.51421e-06
0.000253355
1.48074e-06
0.00025276
1.44588e-06
0.000252178
1.4148e-06
0.00025161
1.38292e-06
0.000251055
1.35331e-06
0.000250513
1.32436e-06
0.000249982
1.29746e-06
0.000249463
1.26979e-06
0.000248955
1.24404e-06
0.000248458
1.21842e-06
0.000247972
1.19397e-06
0.000247495
1.17006e-06
0.000247029
1.14652e-06
0.000246572
1.12504e-06
0.000246124
1.10305e-06
0.000245685
1.08266e-06
0.000245255
1.06169e-06
0.000244832
1.04244e-06
0.000244419
1.02268e-06
0.000244012
1.00418e-06
0.000243614
9.85944e-07
0.000243223
9.67972e-07
0.000242839
9.51327e-07
0.000242463
9.34319e-07
0.000242093
9.18395e-07
0.000241729
9.022e-07
0.000241372
8.87049e-07
0.000241022
8.71767e-07
0.000240677
8.5706e-07
0.000240339
8.42787e-07
0.000240006
8.28557e-07
0.000239679
8.15382e-07
0.000239357
8.0184e-07
0.000239041
7.89284e-07
0.00023873
7.7625e-07
0.000238424
7.64253e-07
0.000238123
7.51707e-07
0.000237827
7.40264e-07
0.000237536
7.28406e-07
0.000237249
7.17298e-07
0.000236967
7.06259e-07
0.00023669
6.95274e-07
0.000236416
6.85142e-07
0.000236147
6.74527e-07
0.000235882
6.64794e-07
0.000235621
6.54534e-07
0.000235364
6.45252e-07
0.000235111
6.35348e-07
0.000234861
6.26513e-07
0.000234616
6.17003e-07
0.000234374
6.08411e-07
0.000234135
5.99441e-07
0.0002339
5.91056e-07
0.000233669
5.82597e-07
0.000233441
5.7462e-07
0.000233216
5.66384e-07
0.000232994
5.58707e-07
0.000232775
5.50722e-07
0.000232559
5.43372e-07
0.000232347
5.35692e-07
0.000232137
5.28582e-07
0.000231931
5.21261e-07
0.000231727
5.14292e-07
0.000231526
5.074e-07
0.000231327
5.00545e-07
0.000231131
4.9408e-07
0.000230938
4.8741e-07
0.000230748
4.81173e-07
0.00023056
4.74691e-07
0.000230375
4.68703e-07
0.000230192
4.62394e-07
0.000230011
4.56647e-07
0.000229833
4.50534e-07
0.000229657
4.44961e-07
0.000229483
4.39089e-07
0.000229312
4.33654e-07
0.000229142
4.28048e-07
0.000228975
4.22727e-07
0.000228811
4.17398e-07
0.000228648
4.12274e-07
0.000228487
4.0705e-07
0.000228328
4.02117e-07
0.000228171
3.97041e-07
0.000228016
3.92277e-07
0.000227864
3.87339e-07
0.000227712
3.82742e-07
0.000227563
3.77968e-07
0.000227416
3.73478e-07
0.00022727
3.68918e-07
0.000227127
3.64516e-07
0.000226985
3.60156e-07
0.000226844
3.55823e-07
0.000226706
3.5171e-07
0.000226569
3.47531e-07
0.000226433
3.43502e-07
0.000226299
3.39377e-07
0.000226167
3.35531e-07
0.000226036
3.31565e-07
0.000225907
3.27798e-07
0.00022578
3.2389e-07
0.000225653
3.20293e-07
0.000225529
3.16509e-07
0.000225405
3.12965e-07
0.000225283
3.09324e-07
0.000225163
3.05962e-07
0.000225044
3.02468e-07
0.000224926
2.99225e-07
0.000224809
2.95859e-07
0.000224694
2.9277e-07
0.00022458
2.89429e-07
0.000224467
2.86557e-07
0.000224355
2.83575e-07
0.000224245
2.8096e-07
0.000224135
2.78209e-07
0.000224027
2.75658e-07
0.000223919
2.73351e-07
0.000223813
2.70775e-07
0.000223707
2.69133e-07
0.000223602
2.6634e-07
0.000223498
2.66047e-07
0.000223394
2.62489e-07
0.000223292
2.64348e-07
0.000223189
2.58487e-07
0.000223087
2.64809e-07
0.000222985
2.5392e-07
0.000222882
2.70331e-07
0.000222782
2.48377e-07
0.000222677
2.80691e-07
0.000222576
2.44861e-07
0.000222468
2.9193e-07
0.000222363
2.53469e-07
0.000222252
3.03639e-07
0.000222143
2.43843e-07
5.75935e-07
0.000634307
0.000216842
0.00064405
0.00024031
0.000640935
0.000179266
0.000631422
0.000144935
0.000614911
0.000121489
0.000594923
0.000102265
0.000573631
8.67191e-05
0.000552225
7.45124e-05
0.00053171
6.41859e-05
0.000512656
5.56185e-05
0.000495358
4.81906e-05
0.00047981
4.1909e-05
0.00046592
3.67349e-05
0.000453521
3.22467e-05
0.000442426
2.85342e-05
0.000432475
2.54683e-05
0.000423538
2.28395e-05
0.000415468
2.06117e-05
0.000408142
1.87273e-05
0.000401477
1.70456e-05
0.000395385
1.56305e-05
0.000389794
1.43819e-05
0.000384641
1.33016e-05
0.00037988
1.23134e-05
0.000375465
1.14428e-05
0.000371355
1.07068e-05
0.000367524
1.00155e-05
0.000363938
9.4172e-06
0.00036058
8.84658e-06
0.000357422
8.35056e-06
0.000354446
7.89571e-06
0.000351637
7.48878e-06
0.000348982
7.10134e-06
0.000346466
6.75083e-06
0.000344079
6.43342e-06
0.000341807
6.14066e-06
0.000339645
5.85978e-06
0.000337582
5.61241e-06
0.000335613
5.37352e-06
0.000333731
5.15179e-06
0.000331927
4.95596e-06
0.000330199
4.75803e-06
0.00032854
4.5844e-06
0.000326947
4.40969e-06
0.000325415
4.25525e-06
0.00032394
4.10738e-06
0.000322518
3.97174e-06
0.000321148
3.835e-06
0.000319825
3.7153e-06
0.000318548
3.59156e-06
0.000317314
3.48107e-06
0.000316119
3.37499e-06
0.000314963
3.27676e-06
0.000313843
3.1778e-06
0.000312758
3.08734e-06
0.000311705
2.99903e-06
0.000310684
2.91507e-06
0.000309693
2.83779e-06
0.000308729
2.76035e-06
0.000307793
2.68919e-06
0.000306883
2.61828e-06
0.000305997
2.55266e-06
0.000305134
2.48826e-06
0.000304295
2.42605e-06
0.000303477
2.36933e-06
0.00030268
2.31133e-06
0.000301902
2.25819e-06
0.000301144
2.20384e-06
0.000300405
2.15455e-06
0.000299683
2.10477e-06
0.000298978
2.05811e-06
0.00029829
2.01273e-06
0.000297617
1.97033e-06
0.000296959
1.92728e-06
0.000296316
1.88694e-06
0.000295688
1.84706e-06
0.000295073
1.80889e-06
0.000294471
1.77173e-06
0.000293882
1.73521e-06
0.000293306
1.70153e-06
0.000292741
1.66756e-06
0.000292188
1.63576e-06
0.000291647
1.60343e-06
0.000291116
1.57344e-06
0.000290595
1.54303e-06
0.000290085
1.51435e-06
0.000289585
1.48621e-06
0.000289094
1.45853e-06
0.000288613
1.43269e-06
0.000288141
1.40659e-06
0.000287677
1.38197e-06
0.000287222
1.35716e-06
0.000286775
1.33377e-06
0.000286337
1.31035e-06
0.000285906
1.28777e-06
0.000285483
1.26587e-06
0.000285067
1.2441e-06
0.000284659
1.22376e-06
0.000284258
1.20315e-06
0.000283863
1.18383e-06
0.000283476
1.16401e-06
0.000283094
1.14557e-06
0.000282719
1.12654e-06
0.000282351
1.10897e-06
0.000281988
1.09098e-06
0.000281631
1.07399e-06
0.00028128
1.05717e-06
0.000280935
1.0405e-06
0.000280595
1.02496e-06
0.000280261
1.00893e-06
0.000279932
9.94014e-07
0.000279608
9.78552e-07
0.000279289
9.64332e-07
0.000278975
9.4944e-07
0.000278665
9.35898e-07
0.000278361
9.21612e-07
0.000278061
9.08484e-07
0.000277765
8.94983e-07
0.000277474
8.82223e-07
0.000277187
8.69466e-07
0.000276904
8.57333e-07
0.000276626
8.44935e-07
0.000276351
8.33275e-07
0.000276081
8.21286e-07
0.000275814
8.10119e-07
0.000275551
7.98592e-07
0.000275292
7.87809e-07
0.000275036
7.76808e-07
0.000274784
7.6628e-07
0.000274536
7.55888e-07
0.000274291
7.45582e-07
0.000274049
7.3579e-07
0.000273811
7.25799e-07
0.000273575
7.16356e-07
0.000273343
7.06663e-07
0.000273114
6.97595e-07
0.000272889
6.88179e-07
0.000272666
6.7947e-07
0.000272446
6.7036e-07
0.000272229
6.61926e-07
0.000272015
6.5317e-07
0.000271804
6.44962e-07
0.000271595
6.36592e-07
0.000271389
6.2858e-07
0.000271186
6.20602e-07
0.000270985
6.12897e-07
0.000270787
6.05098e-07
0.000270592
5.97674e-07
0.000270399
5.90106e-07
0.000270208
5.82939e-07
0.00027002
5.75581e-07
0.000269834
5.68663e-07
0.00026965
5.61556e-07
0.000269469
5.54813e-07
0.00026929
5.48008e-07
0.000269113
5.41415e-07
0.000268938
5.34902e-07
0.000268766
5.28434e-07
0.000268595
5.22256e-07
0.000268427
5.16025e-07
0.00026826
5.09999e-07
0.000268096
5.03869e-07
0.000267933
4.98096e-07
0.000267772
4.9219e-07
0.000267614
4.86565e-07
0.000267457
4.80764e-07
0.000267302
4.75382e-07
0.000267149
4.69761e-07
0.000266997
4.64491e-07
0.000266847
4.59057e-07
0.000266699
4.54057e-07
0.000266553
4.4882e-07
0.000266408
4.44029e-07
0.000266265
4.38949e-07
0.000266123
4.34449e-07
0.000265983
4.29387e-07
0.000265845
4.25231e-07
0.000265708
4.20534e-07
0.000265572
4.16856e-07
0.000265438
4.12375e-07
0.000265304
4.0899e-07
0.000265173
4.04908e-07
0.000265042
4.01789e-07
0.000264912
3.98307e-07
0.000264784
3.95296e-07
0.000264656
3.9314e-07
0.000264529
3.89719e-07
0.000264404
3.89835e-07
0.000264278
3.84245e-07
0.000264153
3.89355e-07
0.000264029
3.78369e-07
0.000263904
3.95002e-07
0.000263781
3.71881e-07
0.000263654
4.07112e-07
0.000263531
3.6823e-07
0.000263401
4.22325e-07
0.000263273
3.81009e-07
0.00026314
4.36471e-07
0.000263006
3.78289e-07
7.45201e-07
0.000662834
0.000195874
0.000676972
0.000226172
0.000678735
0.000177502
0.000676808
0.000146862
0.000670868
0.000127429
0.000661396
0.000111737
0.000649244
9.88712e-05
0.000634968
8.87881e-05
0.000619277
7.98765e-05
0.000602797
7.20989e-05
0.000586245
6.47421e-05
0.000570138
5.80166e-05
0.00055485
5.20228e-05
0.000540604
4.64931e-05
0.000527445
4.16925e-05
0.000515357
3.75562e-05
0.00050431
3.38864e-05
0.000494209
3.07133e-05
0.000484952
2.79847e-05
0.000476471
2.55257e-05
0.000468685
2.34172e-05
0.000461511
2.15555e-05
0.000454884
1.99286e-05
0.00044875
1.84474e-05
0.000443059
1.71339e-05
0.00043776
1.60062e-05
0.000432819
1.49565e-05
0.000428196
1.40395e-05
0.00042387
1.31733e-05
0.000419804
1.24163e-05
0.000415976
1.17233e-05
0.000412367
1.1098e-05
0.000408959
1.05094e-05
0.000405734
9.97602e-06
0.000402677
9.49044e-06
0.000399772
9.04573e-06
0.000397009
8.62258e-06
0.000394377
8.24399e-06
0.000391869
7.88217e-06
0.000389473
7.54702e-06
0.000387181
7.24827e-06
0.000384989
6.95065e-06
0.000382886
6.68708e-06
0.000380869
6.42643e-06
0.000378932
6.19239e-06
0.00037707
5.96925e-06
0.000375278
5.76409e-06
0.000373552
5.56045e-06
0.000371888
5.37925e-06
0.000370284
5.19588e-06
0.000368735
5.03053e-06
0.000367237
4.87212e-06
0.000365789
4.72472e-06
0.000364389
4.57845e-06
0.000363033
4.44362e-06
0.000361719
4.31283e-06
0.000360446
4.18821e-06
0.00035921
4.07311e-06
0.000358012
3.95913e-06
0.000356847
3.8536e-06
0.000355716
3.74925e-06
0.000354617
3.65214e-06
0.000353547
3.55743e-06
0.000352508
3.46595e-06
0.000351495
3.38194e-06
0.000350509
3.29724e-06
0.000349548
3.21892e-06
0.000348612
3.13985e-06
0.0003477
3.06733e-06
0.00034681
2.99482e-06
0.000345941
2.92649e-06
0.000345094
2.86026e-06
0.000344266
2.79813e-06
0.000343457
2.73563e-06
0.000342668
2.67681e-06
0.000341896
2.61892e-06
0.000341141
2.56342e-06
0.000340403
2.50957e-06
0.000339682
2.4567e-06
0.000338976
2.40761e-06
0.000338285
2.3586e-06
0.000337608
2.3124e-06
0.000336946
2.26582e-06
0.000336297
2.22234e-06
0.000335661
2.1786e-06
0.000335038
2.13715e-06
0.000334428
2.09662e-06
0.00033383
2.0568e-06
0.000333243
2.01944e-06
0.000332668
1.98199e-06
0.000332103
1.94649e-06
0.000331549
1.91094e-06
0.000331006
1.87727e-06
0.000330472
1.84372e-06
0.000329949
1.81136e-06
0.000329435
1.77995e-06
0.00032893
1.74883e-06
0.000328434
1.71956e-06
0.000327947
1.69018e-06
0.000327469
1.66245e-06
0.000326998
1.63424e-06
0.000326536
1.60779e-06
0.000326082
1.58078e-06
0.000325635
1.55561e-06
0.000325196
1.53004e-06
0.000324764
1.50579e-06
0.00032434
1.48184e-06
0.000323922
1.45816e-06
0.000323511
1.43592e-06
0.000323107
1.41321e-06
0.000322709
1.39191e-06
0.000322317
1.37006e-06
0.000321932
1.34974e-06
0.000321553
1.32874e-06
0.000321179
1.30938e-06
0.000320812
1.28925e-06
0.00032045
1.27054e-06
0.000320093
1.25149e-06
0.000319742
1.23335e-06
0.000319396
1.21533e-06
0.000319055
1.19809e-06
0.00031872
1.1806e-06
0.000318389
1.16406e-06
0.000318063
1.14718e-06
0.000317742
1.13133e-06
0.000317425
1.11511e-06
0.000317113
1.09983e-06
0.000316806
1.08434e-06
0.000316502
1.06947e-06
0.000316204
1.0548e-06
0.000315909
1.04029e-06
0.000315618
1.02643e-06
0.000315332
1.01239e-06
0.000315049
9.99034e-07
0.00031477
9.85439e-07
0.000314495
9.7261e-07
0.000314224
9.59424e-07
0.000313956
9.47101e-07
0.000313692
9.34355e-07
0.000313432
9.22434e-07
0.000313175
9.10181e-07
0.000312921
8.98599e-07
0.000312671
8.86876e-07
0.000312424
8.75594e-07
0.00031218
8.64401e-07
0.000311939
8.5356e-07
0.000311702
8.42641e-07
0.000311467
8.32192e-07
0.000311236
8.21608e-07
0.000311007
8.11522e-07
0.000310782
8.01241e-07
0.000310559
7.91509e-07
0.000310339
7.81582e-07
0.000310121
7.72107e-07
0.000309907
7.62589e-07
0.000309695
7.53349e-07
0.000309485
7.44231e-07
0.000309279
7.35181e-07
0.000309074
7.26505e-07
0.000308873
7.17796e-07
0.000308673
7.09351e-07
0.000308476
7.00805e-07
0.000308282
6.92701e-07
0.00030809
6.84456e-07
0.0003079
6.76586e-07
0.000307712
6.6851e-07
0.000307526
6.60968e-07
0.000307343
6.53138e-07
0.000307162
6.45786e-07
0.000306982
6.382e-07
0.000306805
6.31217e-07
0.00030663
6.23881e-07
0.000306457
6.17219e-07
0.000306286
6.10086e-07
0.000306116
6.03869e-07
0.000305949
5.9675e-07
0.000305783
5.91028e-07
0.00030562
5.84276e-07
0.000305457
5.79266e-07
0.000305297
5.72711e-07
0.000305137
5.68266e-07
0.00030498
5.62067e-07
0.000304824
5.5822e-07
0.00030467
5.52536e-07
0.000304516
5.49169e-07
0.000304364
5.44769e-07
0.000304212
5.41399e-07
0.000304063
5.39366e-07
0.000303913
5.34078e-07
0.000303765
5.37494e-07
0.000303617
5.26652e-07
0.000303469
5.42702e-07
0.000303322
5.19145e-07
0.000303173
5.55924e-07
0.000303026
5.15361e-07
0.000302873
5.75078e-07
0.000302722
5.31916e-07
0.000302566
5.9235e-07
0.000302407
5.37159e-07
9.28876e-07
0.000692313
0.000176309
0.000707615
0.000210871
0.000712069
0.000173048
0.000712614
0.000146317
0.000711316
0.000128728
0.000708068
0.000114984
0.00070273
0.000104209
0.000695577
9.5941e-05
0.000686726
8.87273e-05
0.000676224
8.2601e-05
0.000664367
7.65994e-05
0.0006515
7.08838e-05
0.000638044
6.54789e-05
0.000624464
6.00734e-05
0.000611105
5.50511e-05
0.000598214
5.04471e-05
0.000585977
4.61235e-05
0.000574466
4.22243e-05
0.000563691
3.87597e-05
0.000553656
3.55609e-05
0.000544327
3.27463e-05
0.000535652
3.02297e-05
0.000527582
2.79993e-05
0.000520069
2.59595e-05
0.000513073
2.41305e-05
0.000506538
2.25406e-05
0.00050043
2.10654e-05
0.000494705
1.97638e-05
0.000489339
1.85399e-05
0.000484293
1.74622e-05
0.000479542
1.64744e-05
0.000475059
1.55802e-05
0.000470827
1.47422e-05
0.000466822
1.39807e-05
0.000463027
1.32854e-05