/*--------------------------------*- C++ -*----------------------------------*\
  =========                 |
  \\      /  F ield         | OpenFOAM: The Open Source CFD Toolbox
   \\    /   O peration     | Website:  https://openfoam.org
    \\  /    A nd           | Version:  12
     \\/     M anipulation  |
\*---------------------------------------------------------------------------*/
FoamFile
{
    format      ascii;
    class       volVectorField;
    location    "800";
    object      U;
}
// * * * * * * * * * * * * * * * * * * * * * * * * * * * * * * * * * * * * * //

dimensions      [0 1 -1 0 0 0 0];

internalField   nonuniform List<vector> 
20000
(
(0.696546 -0.0953482 0)
(0.391224 -0.00674942 0)
(0.255427 0.000249504 0)
(0.201812 0.000183049 0)
(0.179403 0.000130804 0)
(0.165875 7.44232e-05 0)
(0.156864 1.491e-05 0)
(0.15083 -6.62476e-06 0)
(0.146227 -1.38158e-05 0)
(0.142702 -8.82496e-06 0)
(0.139517 -8.36934e-06 0)
(0.137097 -7.87053e-06 0)
(0.13476 -2.85122e-06 0)
(0.132852 -6.31677e-06 0)
(0.131167 -6.16593e-06 0)
(0.129711 -4.64851e-06 0)
(0.12834 -2.88406e-06 0)
(0.127115 -1.29904e-06 0)
(0.125946 -1.25877e-07 0)
(0.124894 1.27759e-07 0)
(0.123895 1.44208e-06 0)
(0.122961 2.28496e-06 0)
(0.122074 2.85747e-06 0)
(0.121235 3.10374e-06 0)
(0.120457 3.30833e-06 0)
(0.119705 4.1114e-06 0)
(0.11899 4.20729e-06 0)
(0.118305 4.76675e-06 0)
(0.117647 4.795e-06 0)
(0.117017 5.11026e-06 0)
(0.116414 5.05668e-06 0)
(0.115832 5.43887e-06 0)
(0.115268 5.43178e-06 0)
(0.114729 5.50927e-06 0)
(0.114205 5.63586e-06 0)
(0.113697 5.63692e-06 0)
(0.113209 5.50706e-06 0)
(0.112737 5.66949e-06 0)
(0.112275 5.63175e-06 0)
(0.111833 5.5949e-06 0)
(0.111398 5.6676e-06 0)
(0.110979 5.50773e-06 0)
(0.11057 5.6013e-06 0)
(0.110174 5.41053e-06 0)
(0.109788 5.48451e-06 0)
(0.109413 5.38886e-06 0)
(0.109044 5.42874e-06 0)
(0.108688 5.26383e-06 0)
(0.108339 5.32028e-06 0)
(0.107999 5.14504e-06 0)
(0.107668 5.14774e-06 0)
(0.107345 5.05706e-06 0)
(0.107028 5.04047e-06 0)
(0.106719 4.92928e-06 0)
(0.106418 4.88359e-06 0)
(0.106123 4.79913e-06 0)
(0.105836 4.74289e-06 0)
(0.105554 4.70661e-06 0)
(0.105278 4.60483e-06 0)
(0.105008 4.56702e-06 0)
(0.104744 4.48139e-06 0)
(0.104486 4.43565e-06 0)
(0.104232 4.36598e-06 0)
(0.103985 4.29407e-06 0)
(0.103741 4.27084e-06 0)
(0.103503 4.16996e-06 0)
(0.103269 4.13895e-06 0)
(0.10304 4.04213e-06 0)
(0.102816 4.01591e-06 0)
(0.102595 3.93189e-06 0)
(0.102379 3.89201e-06 0)
(0.102168 3.82871e-06 0)
(0.101959 3.78712e-06 0)
(0.101755 3.71553e-06 0)
(0.101554 3.6712e-06 0)
(0.101357 3.61017e-06 0)
(0.101164 3.56014e-06 0)
(0.100974 3.50645e-06 0)
(0.100788 3.44805e-06 0)
(0.100604 3.41745e-06 0)
(0.100424 3.35061e-06 0)
(0.100247 3.31569e-06 0)
(0.100073 3.25496e-06 0)
(0.0999015 3.21985e-06 0)
(0.0997332 3.16215e-06 0)
(0.0995679 3.12384e-06 0)
(0.099405 3.07692e-06 0)
(0.0992451 3.02845e-06 0)
(0.0990875 2.99636e-06 0)
(0.0989326 2.94461e-06 0)
(0.0987801 2.91053e-06 0)
(0.0986301 2.86119e-06 0)
(0.0984824 2.82853e-06 0)
(0.098337 2.78461e-06 0)
(0.098194 2.74485e-06 0)
(0.0980531 2.7087e-06 0)
(0.0979145 2.66617e-06 0)
(0.0977778 2.64085e-06 0)
(0.0976433 2.59237e-06 0)
(0.0975108 2.56619e-06 0)
(0.0973803 2.52161e-06 0)
(0.0972517 2.4969e-06 0)
(0.097125 2.45206e-06 0)
(0.0970003 2.42643e-06 0)
(0.0968772 2.38745e-06 0)
(0.0967562 2.35897e-06 0)
(0.0966366 2.32771e-06 0)
(0.0965191 2.29071e-06 0)
(0.096403 2.26954e-06 0)
(0.0962887 2.22846e-06 0)
(0.0961758 2.21048e-06 0)
(0.0960648 2.16913e-06 0)
(0.0959551 2.1522e-06 0)
(0.0958471 2.11068e-06 0)
(0.0957404 2.09548e-06 0)
(0.0956354 2.05582e-06 0)
(0.0955317 2.03951e-06 0)
(0.0954295 2.00403e-06 0)
(0.0953287 1.98459e-06 0)
(0.0952293 1.9535e-06 0)
(0.0951311 1.93371e-06 0)
(0.0950343 1.90299e-06 0)
(0.0949387 1.88397e-06 0)
(0.0948445 1.85355e-06 0)
(0.0947515 1.83578e-06 0)
(0.0946597 1.80673e-06 0)
(0.0945692 1.78821e-06 0)
(0.0944797 1.76217e-06 0)
(0.0943916 1.74107e-06 0)
(0.0943044 1.71963e-06 0)
(0.0942186 1.69553e-06 0)
(0.0941336 1.67879e-06 0)
(0.0940499 1.65223e-06 0)
(0.0939672 1.63731e-06 0)
(0.0938856 1.61091e-06 0)
(0.0938049 1.59695e-06 0)
(0.0937254 1.57031e-06 0)
(0.0936467 1.5579e-06 0)
(0.0935691 1.53156e-06 0)
(0.0934925 1.51856e-06 0)
(0.0934168 1.49415e-06 0)
(0.093342 1.48079e-06 0)
(0.0932682 1.45805e-06 0)
(0.0931953 1.44347e-06 0)
(0.0931233 1.42399e-06 0)
(0.0930521 1.40892e-06 0)
(0.0929819 1.38818e-06 0)
(0.0929124 1.3749e-06 0)
(0.0928438 1.35524e-06 0)
(0.0927761 1.34169e-06 0)
(0.0927091 1.32184e-06 0)
(0.092643 1.30998e-06 0)
(0.0925776 1.29141e-06 0)
(0.0925131 1.27757e-06 0)
(0.0924493 1.26101e-06 0)
(0.0923862 1.24731e-06 0)
(0.0923239 1.23201e-06 0)
(0.0922624 1.21592e-06 0)
(0.0922015 1.20467e-06 0)
(0.0921413 1.18899e-06 0)
(0.0920819 1.17535e-06 0)
(0.0920231 1.15874e-06 0)
(0.091965 1.149e-06 0)
(0.0919076 1.13351e-06 0)
(0.0918509 1.12012e-06 0)
(0.0917948 1.10505e-06 0)
(0.0917393 1.0949e-06 0)
(0.0916845 1.08036e-06 0)
(0.0916303 1.06588e-06 0)
(0.0915767 1.05524e-06 0)
(0.0915238 1.0422e-06 0)
(0.0914713 1.03342e-06 0)
(0.0914196 1.015e-06 0)
(0.0913682 1.01256e-06 0)
(0.0913178 9.90158e-07 0)
(0.0912673 9.91659e-07 0)
(0.0912182 9.61638e-07 0)
(0.0911684 9.8101e-07 0)
(0.0911206 9.38584e-07 0)
(0.0910712 9.74266e-07 0)
(0.0910249 9.06231e-07 0)
(0.0909756 9.76463e-07 0)
(0.0909311 8.71081e-07 0)
(0.0908814 9.90247e-07 0)
(0.0908389 8.24491e-07 0)
(0.090788 1.02735e-06 0)
(0.0907482 7.66035e-07 0)
(0.090695 1.0886e-06 0)
(0.0906588 6.74133e-07 0)
(0.090602 1.18805e-06 0)
(0.0905705 5.51823e-07 0)
(0.0905088 1.36048e-06 0)
(0.0904809 3.70752e-07 0)
(0.0904158 1.57841e-06 0)
(0.0903892 1.63779e-07 0)
(0.0903212 1.84265e-06 0)
(0.0902988 -2.02377e-07 0)
(0.0902143 2.36222e-06 0)
(0.0902353 -2.04571e-06 0)
(0.0900412 1.04448e-05 0)
(0.971307 0.0731487 0)
(0.832589 0.0463969 0)
(0.671411 0.0180089 0)
(0.562236 0.00770775 0)
(0.499329 0.00400575 0)
(0.458861 0.00249284 0)
(0.430563 0.00167222 0)
(0.409981 0.00121791 0)
(0.393931 0.000939455 0)
(0.381181 0.000776284 0)
(0.370321 0.000648527 0)
(0.361502 0.000547967 0)
(0.353683 0.000483491 0)
(0.347066 0.000411277 0)
(0.341266 0.00035888 0)
(0.336204 0.000321965 0)
(0.33158 0.000292951 0)
(0.327464 0.000268836 0)
(0.323656 0.000248709 0)
(0.320218 0.000228094 0)
(0.317023 0.000213942 0)
(0.314076 0.000200681 0)
(0.311326 0.000189062 0)
(0.308753 0.000177092 0)
(0.306373 0.000166344 0)
(0.304119 0.000159323 0)
(0.301995 0.000151116 0)
(0.299983 0.000144952 0)
(0.298075 0.000137852 0)
(0.296267 0.000132266 0)
(0.294547 0.000126336 0)
(0.292904 0.000122143 0)
(0.291329 0.000117158 0)
(0.28983 0.000112745 0)
(0.288389 0.000109046 0)
(0.287005 0.000105202 0)
(0.285677 0.000101044 0)
(0.284405 9.82257e-05 0)
(0.283169 9.49642e-05 0)
(0.281989 9.18956e-05 0)
(0.280839 8.94784e-05 0)
(0.279736 8.64102e-05 0)
(0.278664 8.42679e-05 0)
(0.27763 8.13823e-05 0)
(0.276628 7.94065e-05 0)
(0.275658 7.72112e-05 0)
(0.274713 7.54308e-05 0)
(0.273799 7.31224e-05 0)
(0.272908 7.15894e-05 0)
(0.272045 6.94158e-05 0)
(0.271205 6.78207e-05 0)
(0.27039 6.6112e-05 0)
(0.269593 6.46896e-05 0)
(0.268818 6.29896e-05 0)
(0.268065 6.15664e-05 0)
(0.267329 6.00712e-05 0)
(0.266613 5.87154e-05 0)
(0.265913 5.75194e-05 0)
(0.26523 5.61315e-05 0)
(0.264564 5.49872e-05 0)
(0.263913 5.37272e-05 0)
(0.263278 5.26496e-05 0)
(0.262656 5.15151e-05 0)
(0.262049 5.04116e-05 0)
(0.261454 4.95191e-05 0)
(0.260873 4.84062e-05 0)
(0.260304 4.75213e-05 0)
(0.259748 4.64584e-05 0)
(0.259202 4.56411e-05 0)
(0.258669 4.46806e-05 0)
(0.258146 4.38647e-05 0)
(0.257634 4.30232e-05 0)
(0.257132 4.22755e-05 0)
(0.256639 4.14359e-05 0)
(0.256157 4.07005e-05 0)
(0.255683 3.99328e-05 0)
(0.255219 3.92171e-05 0)
(0.254764 3.85014e-05 0)
(0.254317 3.7787e-05 0)
(0.253879 3.71887e-05 0)
(0.253448 3.64956e-05 0)
(0.253025 3.59066e-05 0)
(0.25261 3.52472e-05 0)
(0.252202 3.46868e-05 0)
(0.251802 3.40629e-05 0)
(0.251408 3.35114e-05 0)
(0.251022 3.29479e-05 0)
(0.250642 3.23868e-05 0)
(0.250268 3.18974e-05 0)
(0.249901 3.1353e-05 0)
(0.24954 3.08731e-05 0)
(0.249185 3.03532e-05 0)
(0.248836 2.98953e-05 0)
(0.248492 2.94085e-05 0)
(0.248154 2.89455e-05 0)
(0.247821 2.85001e-05 0)
(0.247494 2.80428e-05 0)
(0.247172 2.76504e-05 0)
(0.246856 2.71983e-05 0)
(0.246543 2.68167e-05 0)
(0.246236 2.63837e-05 0)
(0.245934 2.60188e-05 0)
(0.245636 2.55964e-05 0)
(0.245343 2.52445e-05 0)
(0.245054 2.48516e-05 0)
(0.24477 2.45015e-05 0)
(0.244489 2.41459e-05 0)
(0.244213 2.378e-05 0)
(0.243941 2.34707e-05 0)
(0.243673 2.3106e-05 0)
(0.243409 2.28109e-05 0)
(0.243149 2.2454e-05 0)
(0.242892 2.21727e-05 0)
(0.242639 2.18243e-05 0)
(0.24239 2.15587e-05 0)
(0.242144 2.12238e-05 0)
(0.241902 2.09611e-05 0)
(0.241663 2.06493e-05 0)
(0.241427 2.03849e-05 0)
(0.241195 2.00961e-05 0)
(0.240966 1.98423e-05 0)
(0.24074 1.95591e-05 0)
(0.240517 1.93143e-05 0)
(0.240297 1.90371e-05 0)
(0.24008 1.88034e-05 0)
(0.239866 1.8537e-05 0)
(0.239655 1.83082e-05 0)
(0.239447 1.80572e-05 0)
(0.239241 1.78264e-05 0)
(0.239038 1.75966e-05 0)
(0.238838 1.73622e-05 0)
(0.23864 1.71539e-05 0)
(0.238446 1.69195e-05 0)
(0.238253 1.672e-05 0)
(0.238063 1.64905e-05 0)
(0.237875 1.62994e-05 0)
(0.23769 1.60738e-05 0)
(0.237507 1.58924e-05 0)
(0.237327 1.56722e-05 0)
(0.237148 1.54941e-05 0)
(0.236972 1.52845e-05 0)
(0.236798 1.5109e-05 0)
(0.236627 1.491e-05 0)
(0.236457 1.4735e-05 0)
(0.23629 1.45505e-05 0)
(0.236125 1.43795e-05 0)
(0.235961 1.41946e-05 0)
(0.2358 1.40328e-05 0)
(0.235641 1.38536e-05 0)
(0.235483 1.36955e-05 0)
(0.235328 1.35199e-05 0)
(0.235174 1.337e-05 0)
(0.235022 1.32006e-05 0)
(0.234872 1.30494e-05 0)
(0.234724 1.28906e-05 0)
(0.234578 1.27417e-05 0)
(0.234433 1.25904e-05 0)
(0.23429 1.24387e-05 0)
(0.234149 1.23033e-05 0)
(0.234009 1.21561e-05 0)
(0.233871 1.2017e-05 0)
(0.233735 1.18698e-05 0)
(0.2336 1.17441e-05 0)
(0.233466 1.16029e-05 0)
(0.233335 1.14714e-05 0)
(0.233204 1.13329e-05 0)
(0.233076 1.1213e-05 0)
(0.232948 1.10779e-05 0)
(0.232823 1.09505e-05 0)
(0.232698 1.08283e-05 0)
(0.232575 1.07092e-05 0)
(0.232453 1.05939e-05 0)
(0.232334 1.04681e-05 0)
(0.232214 1.03694e-05 0)
(0.232097 1.02396e-05 0)
(0.23198 1.0147e-05 0)
(0.231866 1.00107e-05 0)
(0.23175 9.96545e-06 0)
(0.231639 9.81361e-06 0)
(0.231525 9.8046e-06 0)
(0.231417 9.60644e-06 0)
(0.231303 9.67676e-06 0)
(0.2312 9.40708e-06 0)
(0.231085 9.5886e-06 0)
(0.230986 9.20104e-06 0)
(0.230868 9.58196e-06 0)
(0.230776 8.99379e-06 0)
(0.230654 9.6614e-06 0)
(0.230569 8.71641e-06 0)
(0.230439 9.8826e-06 0)
(0.230364 8.35373e-06 0)
(0.230225 1.04543e-05 0)
(0.230158 7.83518e-06 0)
(0.230012 1.12068e-05 0)
(0.229947 7.39732e-06 0)
(0.229795 1.19721e-05 0)
(0.229735 7.16209e-06 0)
(0.229554 1.31019e-05 0)
(0.229553 4.23909e-06 0)
(0.229224 3.84149e-05 0)
(1.00819 0.065317 0)
(0.99085 0.0518141 0)
(0.927088 0.0301997 0)
(0.830987 0.0178223 0)
(0.755578 0.0112166 0)
(0.697508 0.00756676 0)
(0.652387 0.0053591 0)
(0.617037 0.00401804 0)
(0.588717 0.00314471 0)
(0.565652 0.00257617 0)
(0.546401 0.00214594 0)
(0.530278 0.00181099 0)
(0.516441 0.00157247 0)
(0.504534 0.00135296 0)
(0.494116 0.00118382 0)
(0.484967 0.00105641 0)
(0.476735 0.000952469 0)
(0.469413 0.000864832 0)
(0.462737 0.000791881 0)
(0.456707 0.000723732 0)
(0.451165 0.000670918 0)
(0.446087 0.000622985 0)
(0.441389 0.000581805 0)
(0.437028 0.000541911 0)
(0.433 0.000506548 0)
(0.42922 0.00047961 0)
(0.425683 0.000452261 0)
(0.422357 0.000429692 0)
(0.419223 0.000406587 0)
(0.416273 0.000387109 0)
(0.413475 0.000368358 0)
(0.410822 0.000352941 0)
(0.408298 0.000336951 0)
(0.405903 0.000322547 0)
(0.403614 0.000309959 0)
(0.40143 0.000297682 0)
(0.399339 0.000285262 0)
(0.397344 0.000275494 0)
(0.395419 0.000265302 0)
(0.393585 0.000255759 0)
(0.391809 0.000247717 0)
(0.390108 0.0002388 0)
(0.388464 0.000231613 0)
(0.386883 0.000223454 0)
(0.385356 0.000216938 0)
(0.383882 0.000210413 0)
(0.382452 0.000204639 0)
(0.381073 0.000198186 0)
(0.379734 0.000193121 0)
(0.378439 0.000187151 0)
(0.377183 0.000182206 0)
(0.375966 0.000177282 0)
(0.374781 0.000172917 0)
(0.373632 0.000168151 0)
(0.372515 0.000163956 0)
(0.371429 0.000159728 0)
(0.370373 0.000155788 0)
(0.369344 0.000152226 0)
(0.368342 0.000148412 0)
(0.367366 0.000145063 0)
(0.366414 0.000141575 0)
(0.365488 0.000138458 0)
(0.364581 0.000135292 0)
(0.3637 0.00013223 0)
(0.362836 0.000129575 0)
(0.361995 0.000126611 0)
(0.361171 0.00012405 0)
(0.360367 0.000121238 0)
(0.359581 0.000118861 0)
(0.358813 0.0001163 0)
(0.358061 0.000113994 0)
(0.357326 0.000111698 0)
(0.356606 0.000109599 0)
(0.3559 0.000107364 0)
(0.35521 0.000105327 0)
(0.354534 0.000103265 0)
(0.353872 0.000101313 0)
(0.353222 9.93836e-05 0)
(0.352586 9.7477e-05 0)
(0.351962 9.57899e-05 0)
(0.351351 9.39818e-05 0)
(0.350751 9.23569e-05 0)
(0.350162 9.06307e-05 0)
(0.349585 8.90906e-05 0)
(0.349018 8.74599e-05 0)
(0.348461 8.59645e-05 0)
(0.347915 8.447e-05 0)
(0.347379 8.29913e-05 0)
(0.346852 8.16522e-05 0)
(0.346335 8.02385e-05 0)
(0.345826 7.89438e-05 0)
(0.345326 7.75947e-05 0)
(0.344835 7.63604e-05 0)
(0.344353 7.50893e-05 0)
(0.343878 7.38718e-05 0)
(0.343412 7.26929e-05 0)
(0.342953 7.15051e-05 0)
(0.342502 7.04349e-05 0)
(0.342058 6.92873e-05 0)
(0.341622 6.8259e-05 0)
(0.341192 6.71551e-05 0)
(0.34077 6.61711e-05 0)
(0.340354 6.51014e-05 0)
(0.339944 6.41593e-05 0)
(0.339541 6.31537e-05 0)
(0.339145 6.22301e-05 0)
(0.338754 6.13032e-05 0)
(0.33837 6.03698e-05 0)
(0.337991 5.95362e-05 0)
(0.337618 5.86234e-05 0)
(0.33725 5.78227e-05 0)
(0.336889 5.69353e-05 0)
(0.336532 5.61714e-05 0)
(0.336181 5.53104e-05 0)
(0.335834 5.45854e-05 0)
(0.335493 5.37577e-05 0)
(0.335157 5.30474e-05 0)
(0.334826 5.22704e-05 0)
(0.334499 5.1569e-05 0)
(0.334177 5.08412e-05 0)
(0.33386 5.01722e-05 0)
(0.333547 4.94609e-05 0)
(0.333238 4.88157e-05 0)
(0.332934 4.81228e-05 0)
(0.332634 4.75056e-05 0)
(0.332338 4.68389e-05 0)
(0.332046 4.62392e-05 0)
(0.331758 4.56061e-05 0)
(0.331474 4.50116e-05 0)
(0.331193 4.44217e-05 0)
(0.330917 4.38297e-05 0)
(0.330644 4.32832e-05 0)
(0.330375 4.27011e-05 0)
(0.330109 4.21748e-05 0)
(0.329847 4.1607e-05 0)
(0.329588 4.11016e-05 0)
(0.329333 4.05466e-05 0)
(0.32908 4.00636e-05 0)
(0.328832 3.95237e-05 0)
(0.328586 3.9053e-05 0)
(0.328344 3.85363e-05 0)
(0.328104 3.80752e-05 0)
(0.327868 3.75826e-05 0)
(0.327634 3.71281e-05 0)
(0.327404 3.66646e-05 0)
(0.327176 3.62242e-05 0)
(0.326951 3.57655e-05 0)
(0.326729 3.53446e-05 0)
(0.32651 3.48989e-05 0)
(0.326294 3.449e-05 0)
(0.32608 3.40554e-05 0)
(0.325868 3.36637e-05 0)
(0.32566 3.32431e-05 0)
(0.325454 3.28557e-05 0)
(0.32525 3.24574e-05 0)
(0.325049 3.20767e-05 0)
(0.32485 3.16954e-05 0)
(0.324654 3.13161e-05 0)
(0.324459 3.09644e-05 0)
(0.324268 3.05971e-05 0)
(0.324078 3.0245e-05 0)
(0.323891 2.98809e-05 0)
(0.323705 2.95527e-05 0)
(0.323522 2.92022e-05 0)
(0.323341 2.88715e-05 0)
(0.323163 2.85272e-05 0)
(0.322986 2.82176e-05 0)
(0.322811 2.78819e-05 0)
(0.322639 2.75673e-05 0)
(0.322468 2.7253e-05 0)
(0.322299 2.69572e-05 0)
(0.322132 2.66558e-05 0)
(0.321967 2.63606e-05 0)
(0.321803 2.60825e-05 0)
(0.321642 2.57918e-05 0)
(0.321481 2.55175e-05 0)
(0.321325 2.52354e-05 0)
(0.321166 2.50274e-05 0)
(0.321014 2.47475e-05 0)
(0.320857 2.45819e-05 0)
(0.32071 2.42653e-05 0)
(0.320553 2.41959e-05 0)
(0.320411 2.38156e-05 0)
(0.320254 2.388e-05 0)
(0.320119 2.33871e-05 0)
(0.319958 2.37056e-05 0)
(0.319831 2.2996e-05 0)
(0.319665 2.36852e-05 0)
(0.319547 2.25298e-05 0)
(0.319373 2.39177e-05 0)
(0.319267 2.19483e-05 0)
(0.319082 2.47994e-05 0)
(0.318985 2.11422e-05 0)
(0.318791 2.61272e-05 0)
(0.318698 2.05686e-05 0)
(0.318497 2.74142e-05 0)
(0.318408 2.09944e-05 0)
(0.318176 2.91117e-05 0)
(0.318141 1.78871e-05 0)
(0.31777 6.84883e-05 0)
(1.0114 0.0502385 0)
(1.03997 0.0487476 0)
(1.02553 0.0348178 0)
(0.984214 0.0254173 0)
(0.930303 0.0186106 0)
(0.877825 0.0138912 0)
(0.829971 0.0105624 0)
(0.787804 0.00828095 0)
(0.751541 0.00664296 0)
(0.720515 0.00547788 0)
(0.694084 0.0045816 0)
(0.671327 0.00388135 0)
(0.651682 0.00335488 0)
(0.634543 0.00290204 0)
(0.619466 0.00254334 0)
(0.606133 0.0022617 0)
(0.594213 0.00202814 0)
(0.583573 0.00183165 0)
(0.573934 0.00166739 0)
(0.565215 0.00151932 0)
(0.557247 0.00139908 0)
(0.549966 0.00129174 0)
(0.543258 0.00119975 0)
(0.537056 0.00111347 0)
(0.53133 0.00103748 0)
(0.525984 0.000976129 0)
(0.521001 0.000916708 0)
(0.516334 0.00086623 0)
(0.511952 0.000816674 0)
(0.507841 0.000774089 0)
(0.503954 0.000734397 0)
(0.500284 0.000700037 0)
(0.496805 0.000666117 0)
(0.493512 0.000635469 0)
(0.490377 0.000608161 0)
(0.487397 0.000582357 0)
(0.484548 0.000556993 0)
(0.481838 0.000535718 0)
(0.479234 0.000514488 0)
(0.476755 0.000494687 0)
(0.474367 0.000477565 0)
(0.472081 0.000459562 0)
(0.46988 0.000444282 0)
(0.467767 0.000428085 0)
(0.46573 0.000414382 0)
(0.46377 0.000401061 0)
(0.461874 0.000388977 0)
(0.460048 0.000376243 0)
(0.45828 0.000365599 0)
(0.456572 0.000353949 0)
(0.45492 0.000343856 0)
(0.45332 0.000334043 0)
(0.451768 0.000325119 0)
(0.450264 0.000315781 0)
(0.448806 0.000307395 0)
(0.447388 0.000299089 0)
(0.446014 0.000291257 0)
(0.444677 0.000284107 0)
(0.443376 0.000276721 0)
(0.442112 0.000270066 0)
(0.44088 0.000263302 0)
(0.439682 0.000257141 0)
(0.438513 0.000250993 0)
(0.437377 0.000245054 0)
(0.436266 0.000239755 0)
(0.435184 0.000234121 0)
(0.434127 0.000229087 0)
(0.433096 0.00022377 0)
(0.43209 0.000219094 0)
(0.431106 0.000214236 0)
(0.430146 0.000209758 0)
(0.429207 0.000205361 0)
(0.428289 0.000201292 0)
(0.427391 0.000197068 0)
(0.426512 0.000193156 0)
(0.425652 0.000189247 0)
(0.424811 0.000185522 0)
(0.423987 0.00018187 0)
(0.423181 0.000178271 0)
(0.42239 0.000175012 0)
(0.421616 0.000171636 0)
(0.420857 0.000168531 0)
(0.420113 0.000165309 0)
(0.419384 0.000162372 0)
(0.418668 0.000159334 0)
(0.417967 0.000156504 0)
(0.417278 0.000153704 0)
(0.416603 0.000150941 0)
(0.41594 0.000148398 0)
(0.41529 0.000145777 0)
(0.414651 0.000143336 0)
(0.414023 0.000140837 0)
(0.413407 0.000138514 0)
(0.412801 0.000136156 0)
(0.412207 0.00013389 0)
(0.411622 0.000131692 0)
(0.411048 0.000129495 0)
(0.410483 0.000127474 0)
(0.409928 0.000125375 0)
(0.409382 0.000123445 0)
(0.408846 0.000121424 0)
(0.408318 0.000119578 0)
(0.407799 0.000117628 0)
(0.407288 0.000115866 0)
(0.406785 0.000114026 0)
(0.406291 0.000112311 0)
(0.405804 0.000110602 0)
(0.405325 0.000108896 0)
(0.404854 0.000107335 0)
(0.40439 0.000105682 0)
(0.403932 0.000104182 0)
(0.403483 0.000102581 0)
(0.403039 0.000101151 0)
(0.402603 9.96024e-05 0)
(0.402173 9.82419e-05 0)
(0.401749 9.67548e-05 0)
(0.401332 9.54286e-05 0)
(0.400921 9.40274e-05 0)
(0.400516 9.2729e-05 0)
(0.400117 9.14101e-05 0)
(0.399723 9.01745e-05 0)
(0.399335 8.88886e-05 0)
(0.398953 8.76983e-05 0)
(0.398576 8.64499e-05 0)
(0.398204 8.53103e-05 0)
(0.397838 8.41091e-05 0)
(0.397477 8.30057e-05 0)
(0.39712 8.18616e-05 0)
(0.396769 8.07765e-05 0)
(0.396422 7.97024e-05 0)
(0.396081 7.86318e-05 0)
(0.395743 7.76272e-05 0)
(0.395411 7.65825e-05 0)
(0.395082 7.56139e-05 0)
(0.394759 7.45974e-05 0)
(0.394439 7.36668e-05 0)
(0.394124 7.26762e-05 0)
(0.393813 7.17845e-05 0)
(0.393506 7.08233e-05 0)
(0.393203 6.99569e-05 0)
(0.392904 6.9035e-05 0)
(0.392608 6.81891e-05 0)
(0.392317 6.73085e-05 0)
(0.392029 6.64792e-05 0)
(0.391745 6.56452e-05 0)
(0.391465 6.48445e-05 0)
(0.391188 6.40239e-05 0)
(0.390914 6.32558e-05 0)
(0.390644 6.24589e-05 0)
(0.390377 6.17144e-05 0)
(0.390114 6.09386e-05 0)
(0.389854 6.02232e-05 0)
(0.389597 5.94724e-05 0)
(0.389343 5.87697e-05 0)
(0.389093 5.80551e-05 0)
(0.388845 5.73668e-05 0)
(0.3886 5.66817e-05 0)
(0.388359 5.60014e-05 0)
(0.38812 5.53609e-05 0)
(0.387884 5.4704e-05 0)
(0.387651 5.40701e-05 0)
(0.387421 5.34215e-05 0)
(0.387193 5.28231e-05 0)
(0.386968 5.21979e-05 0)
(0.386746 5.16044e-05 0)
(0.386526 5.09906e-05 0)
(0.386309 5.04297e-05 0)
(0.386094 4.98318e-05 0)
(0.385882 4.92721e-05 0)
(0.385672 4.87037e-05 0)
(0.385465 4.81765e-05 0)
(0.385259 4.76279e-05 0)
(0.385057 4.71135e-05 0)
(0.384855 4.65938e-05 0)
(0.384658 4.61004e-05 0)
(0.38446 4.55805e-05 0)
(0.384268 4.51169e-05 0)
(0.384073 4.46736e-05 0)
(0.383887 4.42431e-05 0)
(0.383694 4.38412e-05 0)
(0.383513 4.34023e-05 0)
(0.383321 4.30982e-05 0)
(0.383147 4.26298e-05 0)
(0.382954 4.24593e-05 0)
(0.382787 4.19179e-05 0)
(0.382592 4.2021e-05 0)
(0.382434 4.12966e-05 0)
(0.382234 4.18134e-05 0)
(0.382087 4.06197e-05 0)
(0.381878 4.19772e-05 0)
(0.381743 3.9824e-05 0)
(0.381523 4.30417e-05 0)
(0.3814 3.88048e-05 0)
(0.381168 4.49027e-05 0)
(0.381052 3.81325e-05 0)
(0.380811 4.67952e-05 0)
(0.380698 3.94148e-05 0)
(0.380428 4.89348e-05 0)
(0.380362 3.68996e-05 0)
(0.379963 9.91085e-05 0)
(1.00996 0.0450828 0)
(1.05306 0.0485508 0)
(1.05269 0.0361584 0)
(1.04253 0.0289509 0)
(1.01961 0.0233623 0)
(0.988614 0.0190725 0)
(0.95442 0.0156871 0)
(0.918981 0.0130658 0)
(0.884517 0.0109469 0)
(0.851957 0.00927144 0)
(0.822292 0.00788775 0)
(0.795469 0.00676131 0)
(0.771507 0.00586835 0)
(0.750114 0.00510998 0)
(0.731009 0.00449687 0)
(0.713882 0.00400117 0)
(0.698511 0.00358227 0)
(0.684692 0.00322961 0)
(0.672156 0.00293344 0)
(0.66077 0.00266899 0)
(0.650385 0.00244915 0)
(0.640875 0.00225491 0)
(0.632126 0.00208738 0)
(0.624045 0.00193333 0)
(0.61658 0.00179777 0)
(0.609626 0.00168452 0)
(0.603159 0.00157736 0)
(0.597112 0.00148514 0)
(0.591448 0.00139652 0)
(0.586143 0.00131977 0)
(0.581138 0.00124916 0)
(0.576423 0.00118645 0)
(0.571965 0.00112622 0)
(0.567751 0.00107176 0)
(0.563749 0.00102266 0)
(0.559954 0.000977077 0)
(0.556331 0.000933069 0)
(0.552891 0.000894808 0)
(0.549595 0.000857534 0)
(0.54646 0.000822889 0)
(0.543448 0.000792484 0)
(0.540569 0.000761414 0)
(0.537804 0.000734385 0)
(0.535152 0.000706817 0)
(0.532601 0.000682715 0)
(0.530149 0.000659565 0)
(0.527784 0.000638383 0)
(0.525507 0.000616771 0)
(0.523309 0.000598084 0)
(0.521187 0.000578461 0)
(0.519138 0.000561072 0)
(0.517156 0.000544335 0)
(0.515237 0.000528905 0)
(0.513379 0.000513193 0)
(0.51158 0.000498903 0)
(0.509834 0.000484896 0)
(0.508143 0.000471604 0)
(0.5065 0.0004594 0)
(0.504904 0.000447064 0)
(0.503354 0.00043579 0)
(0.501846 0.000424493 0)
(0.500381 0.000414085 0)
(0.498953 0.000403821 0)
(0.497565 0.000393905 0)
(0.496211 0.000384917 0)
(0.494894 0.000375627 0)
(0.493608 0.000367174 0)
(0.492355 0.000358448 0)
(0.491132 0.0003506 0)
(0.489939 0.000342612 0)
(0.488775 0.000335159 0)
(0.487637 0.000327892 0)
(0.486526 0.000321119 0)
(0.48544 0.0003142 0)
(0.484379 0.000307735 0)
(0.483341 0.000301325 0)
(0.482326 0.000295197 0)
(0.481332 0.000289219 0)
(0.480361 0.000283338 0)
(0.47941 0.000277942 0)
(0.478478 0.00027246 0)
(0.477566 0.000267352 0)
(0.476672 0.000262129 0)
(0.475797 0.000257307 0)
(0.474938 0.00025239 0)
(0.474097 0.000247768 0)
(0.473272 0.000243222 0)
(0.472463 0.000238746 0)
(0.47167 0.000234585 0)
(0.470891 0.000230358 0)
(0.470128 0.000226383 0)
(0.469378 0.00022236 0)
(0.468642 0.000218583 0)
(0.467919 0.000214786 0)
(0.467209 0.000211127 0)
(0.466512 0.000207579 0)
(0.465828 0.000204047 0)
(0.465155 0.00020076 0)
(0.464494 0.000197406 0)
(0.463844 0.000194279 0)
(0.463206 0.000191054 0)
(0.462578 0.000188067 0)
(0.46196 0.000184965 0)
(0.461354 0.000182118 0)
(0.460756 0.000179185 0)
(0.460169 0.000176427 0)
(0.459591 0.000173691 0)
(0.459023 0.000170973 0)
(0.458464 0.000168454 0)
(0.457914 0.000165834 0)
(0.457372 0.000163415 0)
(0.456839 0.000160886 0)
(0.456313 0.000158578 0)
(0.455797 0.000156139 0)
(0.455288 0.000153942 0)
(0.454786 0.000151601 0)
(0.454293 0.000149468 0)
(0.453806 0.000147257 0)
(0.453327 0.000145179 0)
(0.452856 0.000143093 0)
(0.45239 0.000141117 0)
(0.451932 0.000139087 0)
(0.451481 0.000137186 0)
(0.451036 0.000135221 0)
(0.450597 0.000133401 0)
(0.450165 0.000131511 0)
(0.449738 0.000129752 0)
(0.449318 0.000127949 0)
(0.448904 0.000126227 0)
(0.448495 0.000124527 0)
(0.448092 0.000122839 0)
(0.447695 0.000121239 0)
(0.447303 0.000119599 0)
(0.446916 0.000118057 0)
(0.446535 0.000116465 0)
(0.446159 0.000114983 0)
(0.445787 0.000113435 0)
(0.445421 0.000112013 0)
(0.44506 0.000110513 0)
(0.444703 0.000109135 0)
(0.444351 0.000107695 0)
(0.444004 0.000106352 0)
(0.443661 0.000104975 0)
(0.443323 0.000103663 0)
(0.442989 0.000102354 0)
(0.442659 0.00010109 0)
(0.442334 9.9806e-05 0)
(0.442012 9.85912e-05 0)
(0.441695 9.73461e-05 0)
(0.441382 9.617e-05 0)
(0.441073 9.49588e-05 0)
(0.440767 9.38272e-05 0)
(0.440465 9.26561e-05 0)
(0.440168 9.15486e-05 0)
(0.439873 9.04301e-05 0)
(0.439583 8.93484e-05 0)
(0.439295 8.82755e-05 0)
(0.439012 8.72109e-05 0)
(0.438732 8.61999e-05 0)
(0.438455 8.51738e-05 0)
(0.438181 8.41801e-05 0)
(0.437911 8.31699e-05 0)
(0.437644 8.22254e-05 0)
(0.43738 8.12507e-05 0)
(0.43712 8.03223e-05 0)
(0.436862 7.9367e-05 0)
(0.436607 7.84851e-05 0)
(0.436355 7.75551e-05 0)
(0.436107 7.66842e-05 0)
(0.435861 7.57927e-05 0)
(0.435618 7.49708e-05 0)
(0.435377 7.41074e-05 0)
(0.43514 7.33148e-05 0)
(0.434904 7.24863e-05 0)
(0.434673 7.17386e-05 0)
(0.434441 7.09061e-05 0)
(0.434216 7.0213e-05 0)
(0.433988 6.94616e-05 0)
(0.433769 6.88423e-05 0)
(0.433544 6.81283e-05 0)
(0.433331 6.75422e-05 0)
(0.433108 6.69197e-05 0)
(0.432902 6.63562e-05 0)
(0.432679 6.58553e-05 0)
(0.432482 6.52785e-05 0)
(0.432256 6.50524e-05 0)
(0.432069 6.43553e-05 0)
(0.431838 6.45688e-05 0)
(0.431662 6.3417e-05 0)
(0.431423 6.4586e-05 0)
(0.431261 6.23809e-05 0)
(0.43101 6.57285e-05 0)
(0.430861 6.11741e-05 0)
(0.430598 6.80095e-05 0)
(0.430459 6.04514e-05 0)
(0.430182 7.06556e-05 0)
(0.430049 6.26175e-05 0)
(0.429744 7.32278e-05 0)
(0.429653 6.1301e-05 0)
(0.429226 0.000131762 0)
(1.00868 0.0410964 0)
(1.05097 0.0471196 0)
(1.05922 0.0351974 0)
(1.05737 0.0295431 0)
(1.05143 0.0253028 0)
(1.03898 0.0217764 0)
(1.02199 0.0190029 0)
(1.00102 0.0167643 0)
(0.977511 0.0147772 0)
(0.952103 0.0130543 0)
(0.926164 0.0114841 0)
(0.900531 0.0101013 0)
(0.875967 0.00891834 0)
(0.852904 0.00786961 0)
(0.831571 0.00698783 0)
(0.811905 0.00624952 0)
(0.793908 0.00561015 0)
(0.77748 0.00506599 0)
(0.762433 0.00460396 0)
(0.748638 0.00419124 0)
(0.736006 0.00384145 0)
(0.724376 0.00353336 0)
(0.713655 0.00326598 0)
(0.703726 0.00302217 0)
(0.694543 0.00280687 0)
(0.685991 0.00262375 0)
(0.678032 0.00245263 0)
(0.670593 0.00230382 0)
(0.663631 0.00216269 0)
(0.657109 0.00203981 0)
(0.650965 0.00192726 0)
(0.645182 0.00182606 0)
(0.63972 0.00173036 0)
(0.634562 0.00164372 0)
(0.629671 0.00156504 0)
(0.625036 0.00149279 0)
(0.620619 0.00142377 0)
(0.616427 0.00136247 0)
(0.61242 0.0013036 0)
(0.60861 0.001249 0)
(0.604956 0.00120058 0)
(0.601468 0.00115198 0)
(0.598123 0.00110914 0)
(0.594917 0.00106643 0)
(0.591838 0.00102836 0)
(0.588882 0.000991997 0)
(0.586036 0.000958597 0)
(0.583298 0.000925196 0)
(0.580659 0.000895711 0)
(0.578114 0.000865557 0)
(0.575659 0.000838495 0)
(0.573287 0.000812543 0)
(0.570994 0.000788458 0)
(0.568775 0.000764375 0)
(0.566629 0.000742259 0)
(0.56455 0.000720743 0)
(0.562536 0.000700263 0)
(0.560583 0.00068138 0)
(0.558687 0.00066257 0)
(0.556847 0.00064522 0)
(0.555059 0.000627999 0)
(0.553323 0.000612016 0)
(0.551633 0.00059638 0)
(0.549991 0.000581274 0)
(0.548392 0.000567448 0)
(0.546837 0.000553415 0)
(0.54532 0.000540498 0)
(0.543843 0.000527369 0)
(0.542403 0.000515394 0)
(0.540999 0.000503362 0)
(0.53963 0.000492053 0)
(0.538294 0.000481073 0)
(0.536989 0.000470793 0)
(0.535714 0.000460404 0)
(0.53447 0.000450647 0)
(0.533253 0.000441022 0)
(0.532065 0.000431803 0)
(0.530902 0.000422842 0)
(0.529766 0.000414038 0)
(0.528654 0.000405892 0)
(0.527566 0.000397718 0)
(0.526501 0.000390039 0)
(0.525458 0.000382265 0)
(0.524437 0.000375029 0)
(0.523436 0.000367722 0)
(0.522456 0.000360814 0)
(0.521495 0.000354046 0)
(0.520554 0.000347393 0)
(0.519631 0.000341169 0)
(0.518726 0.000334904 0)
(0.517838 0.000328979 0)
(0.516967 0.000323026 0)
(0.516113 0.000317404 0)
(0.515274 0.000311786 0)
(0.514451 0.000306367 0)
(0.513642 0.000301111 0)
(0.512849 0.000295895 0)
(0.512069 0.000291004 0)
(0.511304 0.000286071 0)
(0.510552 0.000281432 0)
(0.509813 0.000276694 0)
(0.509086 0.000272266 0)
(0.508373 0.000267721 0)
(0.507671 0.000263506 0)
(0.506981 0.000259206 0)
(0.506303 0.000255137 0)
(0.505635 0.000251113 0)
(0.50498 0.00024713 0)
(0.504334 0.000243403 0)
(0.503699 0.000239578 0)
(0.503074 0.000236004 0)
(0.50246 0.000232319 0)
(0.501854 0.000228911 0)
(0.501259 0.000225365 0)
(0.500672 0.000222119 0)
(0.500095 0.000218719 0)
(0.499527 0.000215576 0)
(0.498967 0.00021236 0)
(0.498416 0.00020931 0)
(0.497873 0.000206269 0)
(0.497338 0.000203369 0)
(0.496811 0.000200416 0)
(0.496292 0.000197631 0)
(0.495781 0.000194779 0)
(0.495277 0.000192111 0)
(0.49478 0.000189368 0)
(0.49429 0.000186794 0)
(0.493808 0.000184176 0)
(0.493332 0.000181666 0)
(0.492863 0.00017919 0)
(0.492401 0.000176737 0)
(0.491945 0.0001744 0)
(0.491495 0.000172025 0)
(0.491052 0.000169773 0)
(0.490614 0.000167471 0)
(0.490183 0.000165306 0)
(0.489757 0.000163072 0)
(0.489338 0.000160994 0)
(0.488924 0.000158832 0)
(0.488515 0.00015682 0)
(0.488112 0.000154743 0)
(0.487714 0.000152787 0)
(0.487322 0.000150799 0)
(0.486934 0.000148892 0)
(0.486552 0.000146998 0)
(0.486175 0.000145163 0)
(0.485802 0.000143311 0)
(0.485434 0.000141546 0)
(0.485071 0.000139751 0)
(0.484713 0.000138043 0)
(0.484359 0.000136299 0)
(0.48401 0.000134655 0)
(0.483665 0.000132969 0)
(0.483324 0.000131364 0)
(0.482988 0.000129751 0)
(0.482656 0.000128186 0)
(0.482327 0.000126638 0)
(0.482003 0.000125103 0)
(0.481683 0.000123636 0)
(0.481367 0.000122158 0)
(0.481054 0.000120723 0)
(0.480746 0.000119272 0)
(0.480441 0.000117902 0)
(0.480139 0.000116501 0)
(0.479842 0.000115162 0)
(0.479547 0.000113791 0)
(0.479257 0.000112515 0)
(0.478969 0.000111181 0)
(0.478685 0.00010993 0)
(0.478404 0.000108645 0)
(0.478127 0.000107462 0)
(0.477852 0.000106214 0)
(0.477582 0.000105081 0)
(0.477312 0.000103876 0)
(0.477049 0.000102817 0)
(0.476784 0.000101606 0)
(0.476527 0.000100629 0)
(0.476268 9.95004e-05 0)
(0.476017 9.86437e-05 0)
(0.475761 9.75482e-05 0)
(0.475518 9.67751e-05 0)
(0.475264 9.57621e-05 0)
(0.475029 9.50753e-05 0)
(0.474776 9.41672e-05 0)