/*--------------------------------*- C++ -*----------------------------------*\
  =========                 |
  \\      /  F ield         | OpenFOAM: The Open Source CFD Toolbox
   \\    /   O peration     | Website:  https://openfoam.org
    \\  /    A nd           | Version:  12
     \\/     M anipulation  |
\*---------------------------------------------------------------------------*/
FoamFile
{
    format      ascii;
    class       volScalarField;
    location    "800";
    object      epsilon;
}
// * * * * * * * * * * * * * * * * * * * * * * * * * * * * * * * * * * * * * //

dimensions      [0 2 -3 0 0 0 0];

internalField   nonuniform List<scalar> 
20000
(
0.0755143
0.0283663
0.031421
0.041933
0.0488308
0.0543304
0.0597829
0.0655513
0.0703279
0.0747316
0.0777108
0.080935
0.0829961
0.0850555
0.0868067
0.0884115
0.0896313
0.09069
0.0915331
0.0922989
0.0928728
0.0933533
0.0937309
0.0940332
0.0942872
0.0944522
0.0945725
0.0946453
0.0946653
0.0946554
0.0946244
0.0945565
0.0944608
0.0943522
0.0942209
0.0940764
0.093925
0.0937593
0.0935773
0.0933949
0.0931998
0.0930039
0.0927995
0.0925922
0.0923825
0.0921689
0.0919508
0.0917341
0.0915132
0.0912949
0.0910748
0.090857
0.0906359
0.0904172
0.0901999
0.0899836
0.0897678
0.0895534
0.0893409
0.0891298
0.0889202
0.0887125
0.0885061
0.0883024
0.0880991
0.0878993
0.0877008
0.0875052
0.0873109
0.0871192
0.0869292
0.0867416
0.0865559
0.0863725
0.0861913
0.0860121
0.0858352
0.0856604
0.0854878
0.085317
0.0851489
0.0849823
0.0848181
0.0846557
0.0844955
0.0843373
0.084181
0.0840268
0.0838745
0.0837241
0.0835756
0.083429
0.0832842
0.0831412
0.0830001
0.0828608
0.0827232
0.0825873
0.0824534
0.0823209
0.0821903
0.0820612
0.0819339
0.0818081
0.0816839
0.0815613
0.0814402
0.0813208
0.0812027
0.0810863
0.0809711
0.0808576
0.0807453
0.0806346
0.0805251
0.0804172
0.0803105
0.0802052
0.0801012
0.0799985
0.079897
0.0797969
0.0796979
0.0796002
0.0795037
0.0794084
0.0793143
0.0792213
0.0791295
0.0790387
0.0789492
0.0788606
0.0787732
0.0786868
0.0786015
0.0785172
0.078434
0.0783517
0.0782705
0.0781902
0.0781109
0.0780325
0.0779552
0.0778787
0.0778032
0.0777285
0.0776548
0.0775819
0.07751
0.0774388
0.0773686
0.0772991
0.0772306
0.0771628
0.0770957
0.0770296
0.0769642
0.0768996
0.0768357
0.0767726
0.0767102
0.0766486
0.0765877
0.0765276
0.0764681
0.0764094
0.0763514
0.0762942
0.0762376
0.0761817
0.0761265
0.076072
0.076018
0.0759649
0.0759123
0.0758606
0.0758093
0.0757585
0.0757082
0.0756583
0.0756093
0.0755601
0.0755124
0.0754638
0.0754175
0.0753687
0.0753241
0.0752746
0.0752331
0.0751815
0.0751451
0.0750883
0.0750591
0.0749966
0.0749716
0.0749096
0.0748844
0.0748205
0.0748001
0.0747013
0.0279445
0.0395263
0.05993
0.0773081
0.0831665
0.0856049
0.0875908
0.0899537
0.0912833
0.0923686
0.0922736
0.0924506
0.0920239
0.091601
0.0911188
0.0906803
0.0900671
0.0894512
0.0887715
0.0881344
0.0874443
0.0867647
0.086083
0.0854096
0.0847652
0.0841118
0.083474
0.0828492
0.0822281
0.0816248
0.0810401
0.0804635
0.0798962
0.0793478
0.0788088
0.0782844
0.0777754
0.0772788
0.0767881
0.0763159
0.0758505
0.0753999
0.0749577
0.0745268
0.0741067
0.0736961
0.0732931
0.0729014
0.0725168
0.0721429
0.0717766
0.0714202
0.0710694
0.0707272
0.0703933
0.0700664
0.0697464
0.0694333
0.069127
0.0688272
0.0685333
0.0682459
0.0679638
0.0676882
0.0674171
0.0671523
0.0668924
0.066638
0.0663883
0.0661435
0.0659034
0.0656679
0.0654368
0.06521
0.0649876
0.0647692
0.0645549
0.0643444
0.0641379
0.0639349
0.0637359
0.06354
0.0633478
0.0631589
0.0629732
0.0627908
0.0626115
0.0624352
0.062262
0.0620916
0.0619242
0.0617593
0.0615973
0.0614379
0.0612811
0.0611268
0.0609751
0.0608256
0.0606787
0.060534
0.0603917
0.0602515
0.0601135
0.0599776
0.0598438
0.0597122
0.0595823
0.0594547
0.0593287
0.0592049
0.0590827
0.0589624
0.0588438
0.0587271
0.058612
0.0584986
0.0583868
0.0582767
0.058168
0.0580611
0.0579555
0.0578515
0.0577489
0.0576479
0.0575481
0.0574498
0.0573529
0.0572572
0.057163
0.0570699
0.0569782
0.0568877
0.0567984
0.0567103
0.0566234
0.0565377
0.0564531
0.0563696
0.0562873
0.056206
0.0561258
0.0560466
0.0559685
0.0558914
0.0558153
0.0557402
0.0556661
0.0555929
0.0555207
0.0554493
0.0553789
0.0553094
0.0552408
0.055173
0.0551061
0.0550401
0.0549748
0.0549104
0.0548468
0.054784
0.0547219
0.0546606
0.0546001
0.0545403
0.0544813
0.0544231
0.0543655
0.0543087
0.0542526
0.0541971
0.0541424
0.0540883
0.0540349
0.0539821
0.0539301
0.0538786
0.053828
0.0537774
0.053728
0.0536782
0.0536301
0.053581
0.0535344
0.0534857
0.0534407
0.0533918
0.0533486
0.0532989
0.0532587
0.0532072
0.053171
0.0531158
0.053085
0.0530258
0.0529976
0.0529387
0.0529103
0.0528489
0.0528235
0.0527444
0.00616109
0.0183349
0.0321131
0.0491494
0.0621092
0.0722322
0.0795363
0.0850645
0.0882578
0.0902819
0.0907635
0.0909292
0.0905391
0.0898479
0.0890116
0.0881564
0.087165
0.0861416
0.0850831
0.0840676
0.0830389
0.0820351
0.0810531
0.0800995
0.0791889
0.0782975
0.0774351
0.076605
0.075797
0.0750209
0.0742744
0.0735514
0.0728502
0.072177
0.0715242
0.0708955
0.0702882
0.0697022
0.0691305
0.0685818
0.0680478
0.0675324
0.067032
0.0665467
0.0660766
0.0656202
0.0651761
0.0647456
0.0643264
0.06392
0.0635244
0.0631405
0.0627656
0.062401
0.0620465
0.0617011
0.0613642
0.061036
0.060716
0.060404
0.0600992
0.059802
0.0595114
0.0592281
0.0589508
0.0586803
0.0584157
0.0581572
0.0579043
0.0576571
0.057415
0.0571783
0.0569465
0.0567196
0.0564975
0.0562798
0.0560666
0.0558578
0.0556531
0.0554524
0.0552559
0.055063
0.0548739
0.0546884
0.0545064
0.0543278
0.0541526
0.0539805
0.0538117
0.0536459
0.0534832
0.0533232
0.0531662
0.0530118
0.0528603
0.0527113
0.0525649
0.0524209
0.0522795
0.0521404
0.0520037
0.0518692
0.051737
0.0516069
0.0514789
0.0513531
0.0512291
0.0511073
0.0509873
0.0508693
0.050753
0.0506387
0.050526
0.0504152
0.0503059
0.0501984
0.0500925
0.0499883
0.0498855
0.0497843
0.0496846
0.0495864
0.0494896
0.0493942
0.0493002
0.0492076
0.0491163
0.0490263
0.0489376
0.0488501
0.0487639
0.0486789
0.0485951
0.0485124
0.0484309
0.0483505
0.0482712
0.048193
0.0481159
0.0480398
0.0479648
0.0478907
0.0478177
0.0477456
0.0476745
0.0476043
0.0475351
0.0474668
0.0473993
0.0473328
0.0472671
0.0472023
0.0471383
0.0470751
0.0470128
0.0469512
0.0468905
0.0468305
0.0467713
0.0467128
0.046655
0.0465981
0.0465418
0.0464862
0.0464313
0.0463771
0.0463236
0.0462707
0.0462186
0.046167
0.0461162
0.0460659
0.0460163
0.0459672
0.0459189
0.045871
0.0458239
0.0457769
0.0457309
0.0456848
0.0456401
0.0455947
0.0455512
0.0455063
0.0454643
0.0454194
0.045379
0.0453338
0.0452956
0.0452494
0.0452142
0.0451657
0.0451347
0.0450832
0.045055
0.0450031
0.0449749
0.0449224
0.0448948
0.0448357
0.00171954
0.00660883
0.0120998
0.0206253
0.0298576
0.039731
0.0490331
0.05752
0.0640675
0.0691389
0.0723472
0.0746185
0.0758956
0.0765462
0.0766979
0.0765922
0.0762282
0.0756546
0.0749608
0.0742212
0.0734304
0.0726078
0.0717757
0.0709429
0.0701279
0.0693217
0.0685281
0.0677569
0.0670015
0.0662707
0.0655631
0.0648767
0.0642095
0.0635666
0.0629426
0.0623411
0.061759
0.0611972
0.0606501
0.0601238
0.0596128
0.0591191
0.0586408
0.0581768
0.0577278
0.0572922
0.0568693
0.0564594
0.056061
0.0556749
0.0552996
0.0549356
0.054581
0.0542363
0.0539014
0.0535755
0.053258
0.0529491
0.0526482
0.0523552
0.0520692
0.0517907
0.0515188
0.0512538
0.0509948
0.0507424
0.0504958
0.050255
0.0500198
0.0497899
0.0495651
0.0493455
0.0491307
0.0489205
0.048715
0.0485138
0.0483169
0.0481241
0.0479353
0.0477504
0.0475694
0.047392
0.0472181
0.0470476
0.0468805
0.0467167
0.046556
0.0463984
0.0462438
0.0460921
0.0459432
0.0457971
0.0456536
0.0455127
0.0453744
0.0452386
0.0451051
0.044974
0.0448453
0.0447188
0.0445944
0.0444722
0.044352
0.0442339
0.0441177
0.0440035
0.0438911
0.0437807
0.043672
0.0435651
0.0434598
0.0433563
0.0432544
0.0431542
0.0430554
0.0429583
0.0428626
0.0427685
0.0426757
0.0425844
0.0424944
0.0424059
0.0423186
0.0422326
0.042148
0.0420645
0.0419823
0.0419013
0.0418215
0.0417428
0.0416652
0.0415888
0.0415134
0.0414391
0.0413659
0.0412936
0.0412224
0.0411522
0.041083
0.0410147
0.0409473
0.0408809
0.0408154
0.0407507
0.040687
0.0406241
0.040562
0.0405008
0.0404404
0.0403808
0.0403219
0.0402639
0.0402066
0.04015
0.0400942
0.0400391
0.0399848
0.0399311
0.0398781
0.0398258
0.0397741
0.0397232
0.0396728
0.0396231
0.0395741
0.0395256
0.0394778
0.0394306
0.039384
0.0393379
0.0392925
0.0392476
0.0392032
0.0391594
0.0391162
0.0390735
0.0390314
0.0389895
0.0389484
0.0389074
0.0388673
0.038827
0.038788
0.0387484
0.0387105
0.0386711
0.0386344
0.0385952
0.0385602
0.0385205
0.0384878
0.0384465
0.0384173
0.0383739
0.0383475
0.0383033
0.0382775
0.0382335
0.0382085
0.038161
0.000874538
0.00258664
0.00465758
0.00794292
0.0121173
0.0172688
0.023004
0.0295154
0.0359525
0.042296
0.0476594
0.0521856
0.0556617
0.0582529
0.0600759
0.0613591
0.062153
0.0625817
0.0627121
0.0626586
0.0624676
0.062127
0.0617118
0.0612314
0.0607208
0.0601831
0.0596186
0.0590482
0.0584711
0.0578971
0.0573302
0.05677
0.056217
0.0556771
0.0551475
0.0546319
0.054129
0.0536403
0.053162
0.0526988
0.0522476
0.0518094
0.0513839
0.0509697
0.0505679
0.0501771
0.0497972
0.049428
0.049069
0.0487204
0.0483812
0.0480518
0.0477308
0.0474184
0.0471147
0.0468191
0.0465309
0.0462505
0.0459772
0.0457109
0.0454511
0.045198
0.0449509
0.04471
0.0444747
0.0442452
0.0440211
0.0438023
0.0435885
0.0433796
0.0431754
0.0429759
0.0427808
0.04259
0.0424034
0.0422207
0.042042
0.0418671
0.0416959
0.0415282
0.041364
0.0412031
0.0410455
0.0408911
0.0407397
0.0405913
0.0404458
0.0403031
0.0401631
0.0400258
0.0398912
0.039759
0.0396292
0.0395019
0.0393769
0.0392541
0.0391336
0.0390152
0.0388989
0.0387847
0.0386724
0.0385621
0.0384537
0.0383471
0.0382424
0.0381394
0.0380381
0.0379385
0.0378406
0.0377443
0.0376495
0.0375563
0.0374645
0.0373743
0.0372854
0.037198
0.0371119
0.0370272
0.0369438
0.0368617
0.0367808
0.0367012
0.0366227
0.0365455
0.0364694
0.0363944
0.0363206
0.0362478
0.0361761
0.0361055
0.0360358
0.0359672
0.0358996
0.0358329
0.0357672
0.0357024
0.0356385
0.0355756
0.0355135
0.0354522
0.0353918
0.0353323
0.0352736
0.0352156
0.0351585
0.0351021
0.0350465
0.0349917
0.0349376
0.0348842
0.0348315
0.0347795
0.0347282
0.0346776
0.0346276
0.0345783
0.0345296
0.0344816
0.0344342
0.0343874
0.0343412
0.0342956
0.0342505
0.0342061
0.0341622
0.0341189
0.0340761
0.0340339
0.0339922
0.0339511
0.0339104
0.0338703
0.0338307
0.0337915
0.0337529
0.0337148
0.0336771
0.0336398
0.0336029
0.0335664
0.0335305
0.0334948
0.0334597
0.0334246
0.0333905
0.0333559
0.0333227
0.0332884
0.0332565
0.0332222
0.0331921
0.0331568
0.0331295
0.0330927
0.0330682
0.0330304
0.0330073
0.0329697
0.0329481
0.0329076
0.00065667
0.00132168
0.00216823
0.0034224
0.00503481
0.00723174
0.00981282
0.013104
0.0168155
0.02115
0.0256738
0.0302667
0.034567
0.0383924
0.0416078
0.0442724
0.0463748
0.0479997
0.0492006
0.0500733
0.0506751
0.0510442
0.0512401
0.0512798
0.051232
0.0511006
0.0508836
0.050622
0.0503178
0.0499851
0.0496368
0.0492695
0.0488903
0.0485071
0.0481196
0.0477327
0.0473481
0.0469672
0.0465887
0.0462167
0.0458505
0.0454908
0.0451386
0.0447929
0.0444551
0.0441244
0.0438011
0.0434853
0.0431768
0.0428759
0.0425821
0.0422957
0.0420158
0.0417428
0.0414765
0.0412167
0.0409629
0.0407154
0.0404738
0.040238
0.0400077
0.0397829
0.0395632
0.0393487
0.0391391
0.0389344
0.0387343
0.0385388
0.0383477
0.0381608
0.0379779
0.0377992
0.0376243
0.0374531
0.0372857
0.0371218
0.0369613
0.0368042
0.0366502
0.0364995
0.0363519
0.0362072
0.0360654
0.0359265
0.0357902
0.0356566
0.0355256
0.0353971
0.0352711
0.0351475
0.0350262
0.0349071
0.0347903
0.0346755
0.0345629
0.0344523
0.0343437
0.034237
0.0341322
0.0340292
0.0339281
0.0338287
0.033731
0.033635
0.0335405
0.0334477
0.0333565
0.0332667
0.0331785
0.0330917
0.0330063
0.0329222
0.0328396
0.0327582
0.0326782
0.0325994
0.0325218
0.0324455
0.0323703
0.0322964
0.0322235
0.0321518
0.0320811
0.0320115
0.031943
0.0318755
0.0318089
0.0317434
0.0316788
0.0316152
0.0315525
0.0314907
0.0314298
0.0313698
0.0313106
0.0312523
0.0311947
0.031138
0.0310821
0.031027
0.0309726
0.030919
0.0308662
0.030814
0.0307626
0.0307119
0.0306618
0.0306125
0.0305638
0.0305157
0.0304683
0.0304215
0.0303754
0.0303298
0.0302848
0.0302405
0.0301967
0.0301535
0.0301108
0.0300687
0.0300272
0.0299862
0.0299457
0.0299057
0.0298662
0.0298273
0.0297888
0.0297509
0.0297134
0.0296764
0.0296398
0.0296038
0.0295681
0.029533
0.0294982
0.029464
0.0294301
0.0293966
0.0293635
0.0293308
0.0292984
0.0292665
0.0292348
0.0292036
0.0291726
0.029142
0.0291118
0.0290817
0.0290526
0.0290225
0.028995
0.0289643
0.0289391
0.0289073
0.0288847
0.0288521
0.0288313
0.0287985
0.0287801
0.0287447
0.000586349
0.000878532
0.0012742
0.00181873
0.00247038
0.0033688
0.00442254
0.00582822
0.00748678
0.0095904
0.0120568
0.0149204
0.018067
0.0213725
0.0246308
0.0277381
0.0305521
0.0330269
0.0351265
0.0368799
0.0383085
0.0394475
0.0403402
0.0410157
0.0415203
0.0418831
0.0421158
0.0422519
0.0422995
0.0422826
0.0422223
0.042106
0.0419546
0.0417772
0.0415752
0.0413567
0.0411271
0.0408856
0.0406355
0.0403807
0.0401232
0.0398627
0.039603
0.0393433
0.0390852
0.0388287
0.0385747
0.0383239
0.0380763
0.0378325
0.0375927
0.0373572
0.0371255
0.036898
0.0366749
0.0364561
0.0362414
0.0360312
0.0358251
0.0356233
0.0354254
0.0352317
0.0350419
0.0348561
0.034674
0.0344958
0.0343213
0.0341504
0.033983
0.033819
0.0336584
0.033501
0.0333469
0.0331958
0.0330479
0.0329028
0.0327607
0.0326214
0.0324848
0.0323509
0.0322196
0.0320909
0.0319646
0.0318408
0.0317193
0.0316001
0.0314831
0.0313683
0.0312557
0.0311451
0.0310365
0.0309299
0.0308253
0.0307225
0.0306215
0.0305223
0.0304248
0.0303291
0.030235
0.0301426
0.0300517
0.0299624
0.0298746
0.0297883
0.0297034
0.0296199
0.0295378
0.0294571
0.0293777
0.0292995
0.0292226
0.029147
0.0290725
0.0289993
0.0289271
0.0288562
0.0287863
0.0287175
0.0286497
0.028583
0.0285174
0.0284527
0.0283889
0.0283262
0.0282644
0.0282035
0.0281435
0.0280843
0.0280261
0.0279686
0.0279121
0.0278563
0.0278013
0.0277471
0.0276937
0.0276411
0.0275891
0.027538
0.0274875
0.0274377
0.0273886
0.0273402
0.0272925
0.0272454
0.0271989
0.0271531
0.0271079
0.0270633
0.0270193
0.0269759
0.0269331
0.0268908
0.0268491
0.026808
0.0267674
0.0267273
0.0266878
0.0266487
0.0266102
0.0265721
0.0265346
0.0264975
0.0264609
0.0264248
0.0263892
0.026354
0.0263192
0.0262849
0.0262511
0.0262177
0.0261846
0.0261521
0.0261199
0.0260881
0.0260567
0.0260258
0.0259951
0.025965
0.025935
0.0259056
0.0258762
0.0258475
0.0258188
0.0257908
0.0257628
0.0257354
0.0257079
0.0256811
0.0256546
0.025628
0.0256028
0.0255759
0.0255526
0.0255249
0.025504
0.0254755
0.0254569
0.0254279
0.0254122
0.0253807
0.000560628
0.000698452
0.000904018
0.00117644
0.00147822
0.00188098
0.00233232
0.00292421
0.00361956
0.0045123
0.00559921
0.00694905
0.008565
0.0104659
0.0125954
0.0149175
0.0173265
0.019738
0.0220474
0.0241959
0.0261334
0.0278418
0.0293191
0.0305745
0.0316278
0.0325038
0.0332153
0.0337901
0.0342411
0.0345894
0.0348541
0.0350414
0.0351634
0.0352343
0.0352559
0.0352433
0.0352037
0.0351315
0.035038
0.0349262
0.0348014
0.034661
0.0345142
0.034359
0.0341967
0.0340295
0.0338585
0.0336852
0.0335097
0.0333335
0.0331574
0.0329814
0.0328057
0.032631
0.0324576
0.032286
0.0321158
0.0319477
0.0317818
0.031618
0.0314565
0.0312973
0.0311405
0.0309861
0.0308342
0.0306848
0.0305379
0.0303934
0.0302515
0.0301119
0.0299748
0.0298401
0.0297078
0.0295778
0.0294502
0.0293248
0.0292016
0.0290806
0.0289618
0.0288451
0.0287305
0.0286179
0.0285073
0.0283987
0.028292
0.0281872
0.0280841
0.0279829
0.0278835
0.0277858
0.0276898
0.0275954
0.0275027
0.0274115
0.0273219
0.0272338
0.0271471
0.0270619
0.0269782
0.0268958
0.0268148
0.0267351
0.0266567
0.0265796
0.0265038
0.0264291
0.0263557
0.0262834
0.0262123
0.0261423
0.0260734
0.0260055
0.0259388
0.025873
0.0258083
0.0257445
0.0256818
0.0256199
0.0255591
0.0254991
0.02544
0.0253818
0.0253245
0.025268
0.0252123
0.0251574
0.0251034
0.0250501
0.0249976
0.0249458
0.0248948
0.0248445
0.0247949
0.024746
0.0246978
0.0246503
0.0246034
0.0245572
0.0245116
0.0244667
0.0244223
0.0243786
0.0243355
0.0242929
0.0242509
0.0242095
0.0241686
0.0241283
0.0240885
0.0240493
0.0240105
0.0239723
0.0239346
0.0238973
0.0238606
0.0238243
0.0237885
0.0237532
0.0237183
0.0236838
0.0236499
0.0236163
0.0235832
0.0235505
0.0235182
0.0234863
0.0234548
0.0234238
0.0233931
0.0233628
0.0233329
0.0233034
0.0232742
0.0232455
0.023217
0.023189
0.0231612
0.0231339
0.0231067
0.0230801
0.0230535
0.0230276
0.0230015
0.0229763
0.0229508
0.0229262
0.0229012
0.0228772
0.022853
0.0228293
0.0228063
0.0227824
0.0227611
0.0227367
0.0227175
0.0226924
0.0226756
0.0226498
0.0226361
0.0226081
0.000550228
0.000618
0.000729707
0.000880114
0.00103876
0.00124293
0.00146195
0.00173498
0.00204555
0.00243012
0.00289147
0.00346848
0.00417087
0.00504188
0.00608542
0.00732479
0.00874658
0.0103391
0.0120545
0.0138439
0.0156446
0.0174021
0.0190687
0.020612
0.0220118
0.023266
0.0243682
0.0253311
0.026159
0.0268672
0.0274672
0.0279707
0.0283867
0.0287288
0.0290034
0.0292213
0.0293916
0.029517
0.0296047
0.0296594
0.0296887
0.0296881
0.0296747
0.0296417
0.0295913
0.0295286
0.0294548
0.0293725
0.0292809
0.0291838
0.0290819
0.0289749
0.0288641
0.0287503
0.0286343
0.0285167
0.0283974
0.0282775
0.0281572
0.0280366
0.027916
0.0277956
0.0276758
0.0275565
0.0274381
0.0273206
0.0272042
0.0270889
0.0269748
0.026862
0.0267504
0.0266402
0.0265315
0.0264241
0.0263182
0.0262137
0.0261107
0.0260092
0.0259091
0.0258105
0.0257134
0.0256177
0.0255234
0.0254306
0.0253391
0.0252491
0.0251605
0.0250732
0.0249873
0.0249027
0.0248194
0.0247375
0.0246567
0.0245773
0.024499
0.024422
0.0243462
0.0242715
0.024198
0.0241256
0.0240544
0.0239842
0.0239151
0.0238471
0.0237801
0.0237141
0.0236491
0.0235851
0.023522
0.0234599
0.0233987
0.0233385
0.0232791
0.0232206
0.023163
0.0231062
0.0230502
0.0229951
0.0229407
0.0228872
0.0228344
0.0227823
0.022731
0.0226805
0.0226306
0.0225815
0.0225331
0.0224853
0.0224382
0.0223917
0.0223459
0.0223008
0.0222562
0.0222123
0.022169
0.0221262
0.022084
0.0220425
0.0220014
0.0219609
0.021921
0.0218816
0.0218427
0.0218043
0.0217665
0.0217291
0.0216922
0.0216558
0.0216199
0.0215845
0.0215495
0.021515
0.0214809
0.0214472
0.021414
0.0213812
0.0213488
0.0213169
0.0212853
0.0212541
0.0212234
0.021193
0.021163
0.0211334
0.0211042
0.0210753
0.0210468
0.0210187
0.0209909
0.0209635
0.0209363
0.0209096
0.0208831
0.0208571
0.0208313
0.020806
0.0207807
0.020756
0.0207313
0.0207072
0.0206831
0.0206597
0.020636
0.0206132
0.02059
0.0205679
0.0205452
0.0205235
0.0205016
0.0204803
0.0204594
0.0204381
0.0204186
0.0203969
0.0203794
0.0203571
0.020342
0.0203189
0.0203069
0.0202819
0.000545458
0.00058001
0.000640739
0.000727474
0.000818228
0.00093199
0.00105133
0.00119292
0.0013485
0.00153167
0.00174343
0.00199891
0.00230289
0.00267797
0.00313109
0.00368667
0.0043554
0.00515351
0.00608384
0.00714604
0.0083245
0.00959731
0.0109306
0.0122894
0.0136345
0.0149408
0.0161771
0.0173324
0.0183911
0.0193534
0.0202173
0.0209873
0.0216663
0.0222626
0.0227817
0.0232317
0.0236193
0.0239504
0.0242309
0.0244656
0.0246624
0.0248207
0.0249507
0.025053
0.0251302
0.025186
0.0252225
0.0252434
0.025247
0.0252407
0.0252238
0.0251952
0.0251584
0.0251143
0.0250636
0.0250078
0.0249463
0.0248812
0.024813
0.0247412
0.0246669
0.0245904
0.0245121
0.0244323
0.0243516
0.0242697
0.0241872
0.0241044
0.0240213
0.023938
0.0238547
0.0237715
0.0236886
0.023606
0.0235239
0.0234422
0.023361
0.0232806
0.0232007
0.0231216
0.0230432
0.0229656
0.0228888
0.0228128
0.0227376
0.0226633
0.0225898
0.0225172
0.0224455
0.0223747
0.0223047
0.0222357
0.0221675
0.0221002
0.0220337
0.0219682
0.0219034
0.0218396
0.0217766
0.0217145
0.0216532
0.0215927
0.021533
0.0214742
0.0214162
0.0213589
0.0213024
0.0212467
0.0211918
0.0211376
0.0210841
0.0210314
0.0209794
0.0209281
0.0208775
0.0208276
0.0207784
0.0207298
0.0206819
0.0206347
0.0205881
0.0205421
0.0204967
0.020452
0.0204078
0.0203643
0.0203213
0.0202789
0.020237
0.0201957
0.020155
0.0201148
0.0200751
0.0200359
0.0199973
0.0199591
0.0199215
0.0198843
0.0198476
0.0198114
0.0197757
0.0197404
0.0197056
0.0196712
0.0196373
0.0196038
0.0195707
0.019538
0.0195058
0.019474
0.0194425
0.0194115
0.0193808
0.0193505
0.0193206
0.0192911
0.019262
0.0192332
0.0192047
0.0191767
0.0191489
0.0191215
0.0190945
0.0190678
0.0190414
0.0190153
0.0189896
0.0189642
0.0189391
0.0189143
0.0188898
0.0188656
0.0188417
0.0188182
0.0187948
0.0187719
0.0187491
0.0187267
0.0187044
0.0186826
0.0186607
0.0186396
0.0186181
0.0185976
0.0185766
0.0185566
0.0185361
0.0185166
0.0184967
0.0184776
0.0184586
0.0184396
0.0184219
0.0184026
0.0183866
0.0183668
0.0183531
0.0183325
0.0183219
0.0182995
0.00054288
0.000561124
0.000593336
0.000643328
0.000697171
0.000764126
0.000834318
0.000914737
0.00100118
0.00109875
0.00120739
0.00133268
0.00147633
0.00164726
0.00184805
0.00209124
0.00238382
0.00273728
0.00316246
0.00367047
0.00426665
0.00495759
0.00574024
0.00660977
0.00754814
0.00854304
0.00956685
0.0106022
0.0116228
0.0126144
0.0135602
0.014452
0.0152809
0.0160456
0.0167439
0.0173785
0.0179505
0.018464
0.0189224
0.0193291
0.0196899
0.0200063
0.0202846
0.0205274
0.0207379
0.0209195
0.0210746
0.0212067
0.0213165
0.0214079
0.0214831
0.0215424
0.021588
0.0216215
0.0216438
0.021657
0.0216599
0.0216565
0.0216468
0.0216296
0.0216071
0.0215798
0.0215483
0.0215127
0.0214741
0.021432
0.0213875
0.0213411
0.0212924
0.021242
0.02119
0.0211368
0.0210826
0.0210273
0.0209715
0.0209148
0.0208577
0.0208004
0.0207428
0.020685
0.020627
0.0205691
0.0205112
0.0204535
0.0203959
0.0203385
0.0202814
0.0202245
0.0201681
0.020112
0.0200563
0.020001
0.0199461
0.0198917
0.0198378
0.0197843
0.0197313
0.0196789
0.019627
0.0195756
0.0195247
0.0194743
0.0194245
0.0193752
0.0193265
0.0192783
0.0192306
0.0191835
0.0191369
0.0190909
0.0190454
0.0190004
0.018956
0.018912
0.0188686
0.0188257
0.0187834
0.0187415
0.0187001
0.0186593
0.0186189
0.018579
0.0185397
0.0185007
0.0184623
0.0184243
0.0183868
0.0183498
0.0183131
0.018277
0.0182413
0.018206
0.0181711
0.0181367
0.0181027
0.0180691
0.0180359
0.0180032
0.0179708
0.0179388
0.0179072
0.017876
0.0178451
0.0178147
0.0177846
0.0177548
0.0177255
0.0176964
0.0176678
0.0176394
0.0176115
0.0175838
0.0175565
0.0175295
0.0175028
0.0174765
0.0174504
0.0174247
0.0173993
0.0173742
0.0173494
0.0173248
0.0173006
0.0172767
0.017253
0.0172297
0.0172066
0.0171838
0.0171612
0.017139
0.017117
0.0170953
0.0170737
0.0170526
0.0170316
0.017011
0.0169904
0.0169703
0.0169502
0.0169306
0.0169109
0.0168919
0.0168726
0.0168541
0.0168352
0.0168172
0.0167987
0.0167812
0.0167633
0.0167462
0.0167291
0.0167121
0.0166961
0.016679
0.0166645
0.0166469
0.0166345
0.0166162
0.0166068
0.0165868
0.000541243
0.000550912
0.000567348
0.000595172
0.000626966
0.00066703
0.000709765
0.000757969
0.000809364
0.000865885
0.000927089
0.000995275
0.00107051
0.00115671
0.0012542
0.0013686
0.00150197
0.00166044
0.00184902
0.00207484
0.00234317
0.00266351
0.00303999
0.00348039
0.0039841
0.00455622
0.00518912
0.00588001
0.00661524
0.0073852
0.00817387
0.00896918
0.0097559
0.0105243
0.0112636
0.0119685
0.0126329
0.0132548
0.0138325
0.0143653
0.0148555
0.0153027
0.0157105
0.0160802
0.0164148
0.0167162
0.016987
0.0172296
0.0174459
0.0176382
0.0178091
0.0179599
0.0180924
0.0182083
0.0183088
0.018396
0.0184699
0.0185328
0.0185858
0.018629
0.0186636
0.0186904
0.0187102
0.0187234
0.0187314
0.018733
0.0187309
0.0187248
0.0187141
0.0187
0.0186828
0.0186627
0.0186402
0.0186152
0.0185883
0.0185593
0.0185288
0.0184971
0.0184638
0.0184294
0.018394
0.0183576
0.0183205
0.0182827
0.0182443
0.0182055
0.0181662
0.0181265
0.0180866
0.0180465
0.0180062
0.0179658
0.0179254
0.0178849
0.0178444
0.017804
0.0177636
0.0177234
0.0176833
0.0176433
0.0176035
0.017564
0.0175246
0.0174855
0.0174466
0.017408
0.0173697
0.0173316
0.0172939
0.0172564
0.0172192
0.0171823
0.0171458
0.0171096
0.0170737
0.0170381
0.0170029
0.016968
0.0169334
0.0168991
0.0168652
0.0168317
0.0167984
0.0167655
0.016733
0.0167007
0.0166688
0.0166373
0.016606
0.0165751
0.0165446
0.0165143
0.0164844
0.0164548
0.0164255
0.0163965
0.0163679
0.0163395
0.0163115
0.0162837
0.0162563
0.0162292
0.0162024
0.0161758
0.0161496
0.0161236
0.016098
0.0160726
0.0160475
0.0160227
0.0159981
0.0159739
0.0159499
0.0159261
0.0159027
0.0158795
0.0158565
0.0158338
0.0158114
0.0157892
0.0157673
0.0157456
0.0157242
0.015703
0.015682
0.0156613
0.0156408
0.0156206
0.0156006
0.0155808
0.0155612
0.0155419
0.0155228
0.0155039
0.0154852
0.0154669
0.0154485
0.0154306
0.0154127
0.0153952
0.0153776
0.0153606
0.0153434
0.0153269
0.01531
0.015294
0.0152775
0.0152618
0.0152459
0.0152306
0.0152153
0.0152002
0.0151859
0.0151707
0.0151577
0.0151422
0.0151311
0.0151149
0.0151066
0.0150888
0.000540075
0.00054467
0.000552541
0.000566966
0.000584949
0.000608464
0.00063439
0.000663766
0.000695236
0.000729549
0.00076614
0.000806081
0.000848875
0.000896505
0.000948522
0.00100767
0.00107416
0.00115095
0.00123977
0.0013437
0.00146534
0.00160987
0.00177941
0.00198074
0.00221581
0.0024919
0.00280967
0.00317452
0.00358533
0.0040433
0.00454387
0.00508385
0.00565492
0.00625029
0.00686001
0.00747627
0.0080897
0.00869338
0.00928083
0.00984641
0.0103876
0.0109
0.0113837
0.0118366
0.0122596
0.0126524
0.0130164
0.013352
0.0136611
0.0139445
0.0142042
0.0144413
0.0146575
0.0148542
0.0150325
0.0151942
0.01534
0.0154715
0.0155899
0.0156958
0.0157904
0.0158744
0.0159489
0.0160143
0.016072
0.0161216
0.0161646
0.0162016
0.0162325
0.016258
0.0162786
0.0162947
0.0163068
0.0163149
0.0163198
0.0163209
0.0163197
0.016316
0.0163094
0.0163006
0.0162898
0.0162772
0.0162628
0.0162469
0.0162295
0.0162109
0.016191
0.0161701
0.0161484
0.0161257
0.0161022
0.0160781
0.0160532
0.0160279
0.016002
0.0159757
0.015949
0.015922
0.0158947
0.0158671
0.0158393
0.0158114
0.0157833
0.0157552
0.0157269
0.0156986
0.0156702
0.0156418
0.0156135
0.0155851
0.0155569
0.0155287
0.0155005
0.0154725
0.0154445
0.0154167
0.015389
0.0153615
0.0153341
0.0153068
0.0152797
0.0152528
0.015226
0.0151994
0.015173
0.0151468
0.0151208
0.015095
0.0150694
0.0150439
0.0150187
0.0149937
0.0149689
0.0149443
0.0149199
0.0148957
0.0148717
0.014848
0.0148244
0.0148011
0.0147779
0.014755
0.0147323
0.0147098
0.0146875
0.0146655
0.0146436
0.014622
0.0146005
0.0145793
0.0145583
0.0145374
0.0145168
0.0144964
0.0144762
0.0144562
0.0144364
0.0144168
0.0143974
0.0143782
0.0143591
0.0143403
0.0143217
0.0143033
0.014285
0.014267
0.0142491
0.0142314
0.0142139
0.0141967
0.0141795
0.0141626
0.0141459
0.0141293
0.0141129
0.0140968
0.0140807
0.014065
0.0140492
0.0140338
0.0140183
0.0140033
0.0139882
0.0139736
0.0139588
0.0139446
0.0139301
0.0139162
0.0139022
0.0138887
0.0138752
0.0138619
0.0138493
0.013836
0.0138244
0.0138109
0.013801
0.0137869
0.0137796
0.013764
0.000539162
0.000540425
0.000543537
0.000549991
0.00055927
0.000572235
0.000587313
0.000604838
0.000623948
0.000644961
0.000667326
0.000691587
0.000717154
0.000745093
0.000774854
0.000807834
0.000843878
0.000884269
0.00092967
0.000981432
0.00104033
0.00110903
0.0011878
0.00128061
0.00138806
0.00151444
0.00166103
0.00183244
0.00203015
0.0022579
0.00251681
0.00280943
0.00313527
0.00349433
0.00388408
0.00430187
0.00474308
0.00520275
0.00567565
0.00615522
0.00663725
0.00711497
0.00758532
0.00804325
0.00848668
0.00891252
0.00931972
0.00970643
0.0100727
0.0104176
0.0107417
0.0110452
0.0113288
0.0115929
0.0118386
0.0120666
0.0122777
0.0124731
0.0126534
0.0128197
0.0129728
0.0131134
0.0132426
0.0133607
0.013469
0.0135676
0.0136575
0.0137393
0.0138136
0.0138807
0.0139413
0.0139957
0.0140445
0.014088
0.0141267
0.0141607
0.0141905
0.0142167
0.014239
0.014258
0.0142739
0.0142869
0.0142971
0.0143049
0.0143104
0.0143138
0.014315
0.0143145
0.0143126
0.0143088
0.0143036
0.0142971
0.0142893
0.0142804
0.0142704
0.0142595
0.0142476
0.0142349
0.0142216
0.0142073
0.0141926
0.0141773
0.0141614
0.014145
0.0141282
0.014111
0.0140934
0.0140755
0.0140573
0.0140388
0.0140201
0.0140012
0.0139821
0.0139629
0.0139435
0.013924
0.0139044
0.0138847
0.0138649
0.0138451
0.0138253
0.0138054
0.0137856
0.0137657
0.0137459
0.0137261
0.0137063
0.0136865
0.0136669
0.0136472
0.0136277
0.0136082
0.0135887
0.0135694
0.0135502
0.013531
0.013512
0.013493
0.0134742
0.0134555
0.0134368
0.0134183
0.0133999
0.0133817
0.0133635
0.0133455
0.0133276
0.0133098
0.0132922
0.0132747
0.0132573
0.0132401
0.013223
0.013206
0.0131892
0.0131725
0.0131559
0.0131395
0.0131232
0.013107
0.013091
0.0130751
0.0130594
0.0130438
0.0130283
0.013013
0.0129979
0.0129828
0.0129679
0.0129532
0.0129386
0.0129241
0.0129098
0.0128956
0.0128815
0.0128677
0.0128539
0.0128403
0.0128267
0.0128135
0.0128001
0.0127872
0.0127741
0.0127615
0.0127487
0.0127364
0.0127239
0.0127119
0.0126997
0.012688
0.0126764
0.0126648
0.0126538
0.0126424
0.0126323
0.0126207
0.0126121
0.0125999
0.0125937
0.0125802
0.000538257
0.000537314
0.000537713
0.000539409
0.000543215
0.000549393
0.000557344
0.000567077
0.000578074
0.000590521
0.000603943
0.000618621
0.000634052
0.00065081
0.00066844
0.000687644
0.000708246
0.00073081
0.000755552
0.000783207
0.000813777
0.000848763
0.000887905
0.00093314
0.000984603
0.00104415
0.00111263
0.00119226
0.00128389
0.00139006
0.00151217
0.00165268
0.00181302
0.00199505
0.00220007
0.00242905
0.00268233
0.00295921
0.00325915
0.00357937
0.00391863
0.00427243
0.00463858
0.00501228
0.00539082
0.00576992
0.00614704
0.00651853
0.00688256
0.00723646
0.00757902
0.00790872
0.00822484
0.00852661
0.00881381
0.00908635
0.00934415
0.0095877
0.00981707
0.0100329
0.0102354
0.0104252
0.010603
0.010769
0.0109242
0.0110688
0.0112035
0.0113289
0.0114455
0.0115537
0.011654
0.011747
0.0118331
0.0119126
0.0119861
0.0120538
0.012116
0.0121733
0.0122259
0.012274
0.0123179
0.012358
0.0123944
0.0124274
0.0124572
0.012484
0.012508
0.0125293
0.0125483
0.0125649
0.0125794
0.0125919
0.0126024
0.0126112
0.0126184
0.012624
0.0126282
0.012631
0.0126327
0.0126328
0.0126322
0.0126306
0.0126279
0.0126243
0.0126198
0.0126146
0.0126087
0.0126021
0.0125948
0.012587
0.0125787
0.0125698
0.0125604
0.0125506
0.0125404
0.0125299
0.012519
0.0125078
0.0124963
0.0124845
0.0124725
0.0124602
0.0124478
0.0124351
0.0124223
0.0124093
0.0123962
0.012383