/*--------------------------------*- C++ -*----------------------------------*\
  =========                 |
  \\      /  F ield         | OpenFOAM: The Open Source CFD Toolbox
   \\    /   O peration     | Website:  https://openfoam.org
    \\  /    A nd           | Version:  12
     \\/     M anipulation  |
\*---------------------------------------------------------------------------*/
FoamFile
{
    format      ascii;
    class       volScalarField;
    location    "400";
    object      epsilon;
}
// * * * * * * * * * * * * * * * * * * * * * * * * * * * * * * * * * * * * * //

dimensions      [0 2 -3 0 0 0 0];

internalField   nonuniform List<scalar> 
20000
(
0.0755143
0.0283661
0.031421
0.041933
0.0488318
0.0543298
0.0597784
0.0655485
0.0703365
0.0747463
0.0777093
0.0809289
0.082994
0.0850566
0.0868101
0.0884148
0.0896357
0.0906942
0.0915355
0.0923001
0.0928742
0.0933564
0.093735
0.0940366
0.0942898
0.0944549
0.0945757
0.0946488
0.0946684
0.0946583
0.0946271
0.0945595
0.0944646
0.0943559
0.0942242
0.0940795
0.093928
0.0937628
0.0935813
0.0933992
0.0932042
0.0930078
0.0928031
0.0925956
0.092386
0.0921727
0.091955
0.0917385
0.0915178
0.0912997
0.0910796
0.0908616
0.0906404
0.0904216
0.0902042
0.0899876
0.0897718
0.0895572
0.0893446
0.0891335
0.0889238
0.088716
0.0885095
0.0883058
0.0881025
0.0879026
0.0877041
0.0875084
0.0873141
0.0871223
0.0869323
0.0867447
0.0865591
0.0863756
0.0861945
0.0860153
0.0858384
0.0856637
0.0854912
0.0853204
0.0851524
0.0849858
0.0848218
0.0846594
0.0844994
0.0843411
0.0841852
0.0840309
0.083879
0.0837285
0.0835805
0.0834338
0.0832895
0.0831466
0.0830059
0.0828667
0.0827295
0.0825938
0.0824602
0.082328
0.0821977
0.0820689
0.0819418
0.0818163
0.0816923
0.0815701
0.0814491
0.0813299
0.0812119
0.0810956
0.0809804
0.080867
0.0807544
0.0806436
0.0805337
0.0804252
0.0803178
0.0802118
0.0801067
0.0800032
0.0799004
0.0797993
0.0796994
0.0796008
0.0795041
0.0794082
0.0793144
0.0792214
0.0791304
0.0790398
0.0789517
0.0788633
0.0787769
0.0786897
0.0786043
0.0785176
0.0784322
0.0783449
0.0782592
0.0781711
0.0780843
0.0779949
0.0779069
0.0778161
0.0777266
0.0776349
0.0775448
0.0774515
0.0773597
0.0772648
0.0771709
0.0770745
0.0769809
0.0768855
0.0767938
0.0767015
0.0766138
0.0765262
0.0764427
0.076358
0.0762773
0.0761938
0.0761128
0.0760299
0.0759502
0.0758684
0.0757914
0.0757152
0.0756423
0.07557
0.0754993
0.0754295
0.0753623
0.0752942
0.0752288
0.0751635
0.0750992
0.0750369
0.0749766
0.074918
0.074861
0.0748053
0.0747519
0.0746972
0.0746458
0.0745934
0.0745429
0.0744898
0.0744429
0.0743891
0.074346
0.0742873
0.0742503
0.074187
0.0741582
0.0740938
0.0740681
0.0740041
0.0739865
0.0739091
0.0279445
0.0395262
0.05993
0.077308
0.0831682
0.0856054
0.087586
0.0899501
0.0912927
0.0923837
0.0922753
0.0924477
0.0920232
0.0916031
0.0911231
0.0906845
0.0900722
0.0894561
0.0887749
0.0881369
0.0874469
0.0867685
0.0860874
0.0854134
0.0847684
0.0841152
0.0834776
0.0828529
0.0822316
0.081628
0.0810432
0.0804668
0.0798999
0.0793514
0.0788121
0.0782876
0.0777784
0.0772822
0.0767919
0.0763198
0.0758544
0.0754035
0.0749611
0.07453
0.07411
0.0736996
0.0732968
0.0729052
0.0725207
0.0721469
0.0717806
0.0714241
0.0710733
0.070731
0.070397
0.0700699
0.0697499
0.0694366
0.0691303
0.0688304
0.0685365
0.068249
0.0679669
0.0676912
0.0674201
0.0671553
0.0668954
0.0666409
0.0663912
0.0661465
0.0659063
0.0656709
0.0654398
0.065213
0.0649907
0.0647722
0.064558
0.0643476
0.0641412
0.0639382
0.0637394
0.0635435
0.0633516
0.0631626
0.0629772
0.0627948
0.0626158
0.0624396
0.0622667
0.0620964
0.0619293
0.0617646
0.061603
0.0614437
0.0612873
0.0611333
0.0609818
0.0608327
0.0606862
0.0605418
0.0603999
0.06026
0.0601224
0.0599869
0.0598535
0.0597222
0.0595927
0.0594654
0.0593398
0.0592163
0.0590943
0.0589744
0.0588559
0.0587394
0.0586242
0.0585108
0.0583988
0.0582885
0.0581795
0.0580722
0.0579662
0.0578619
0.057759
0.0576576
0.0575582
0.0574598
0.0573636
0.0572683
0.057175
0.0570825
0.0569922
0.0569023
0.0568142
0.0567259
0.0566394
0.0565523
0.0564666
0.0563799
0.0562947
0.0562081
0.0561227
0.0560358
0.0559502
0.055863
0.055777
0.0556897
0.055604
0.0555164
0.0554303
0.0553423
0.0552556
0.0551674
0.0550815
0.0549946
0.0549106
0.0548263
0.0547456
0.0546652
0.0545884
0.0545111
0.0544372
0.0543618
0.0542888
0.0542147
0.0541433
0.0540708
0.0540015
0.0539331
0.0538674
0.0538024
0.053739
0.0536762
0.053616
0.0535552
0.0534966
0.0534383
0.0533812
0.053325
0.053271
0.0532179
0.0531667
0.0531157
0.0530676
0.0530178
0.0529717
0.0529235
0.052879
0.0528302
0.0527887
0.0527392
0.0527011
0.0526483
0.0526147
0.0525586
0.0525306
0.052474
0.052448
0.0523923
0.0523713
0.0523137
0.00616106
0.0183348
0.032113
0.0491494
0.0621092
0.0722325
0.0795329
0.085059
0.0882617
0.0902942
0.0907672
0.0909273
0.0905378
0.0898488
0.0890147
0.0881598
0.0871691
0.0861458
0.0850863
0.0840699
0.0830411
0.0820383
0.0810568
0.0801029
0.0791918
0.0783005
0.0774383
0.0766082
0.0758
0.0750238
0.0742772
0.0735543
0.0728534
0.0721801
0.0715271
0.0708983
0.0702909
0.069705
0.0691336
0.068585
0.068051
0.0675354
0.0670348
0.0665494
0.0660794
0.065623
0.065179
0.0647487
0.0643296
0.0639232
0.0635276
0.0631436
0.0627687
0.062404
0.0620495
0.0617039
0.061367
0.0610387
0.0607186
0.0604066
0.0601017
0.0598045
0.0595139
0.0592305
0.0589532
0.0586827
0.0584181
0.0581596
0.0579067
0.0576594
0.0574174
0.0571807
0.056949
0.056722
0.0565
0.0562823
0.0560692
0.0558604
0.0556559
0.0554552
0.0552588
0.055066
0.0548771
0.0546916
0.0545098
0.0543313
0.0541563
0.0539843
0.0538158
0.0536501
0.0534877
0.0533279
0.0531712
0.0530171
0.0528658
0.0527171
0.052571
0.0524274
0.0522864
0.0521476
0.0520113
0.0518772
0.0517453
0.0516156
0.051488
0.0513626
0.051239
0.0511176
0.050998
0.0508804
0.0507646
0.0506506
0.0505383
0.0504278
0.0503188
0.0502115
0.0501057
0.0500016
0.0498989
0.0497978
0.049698
0.0495999
0.0495032
0.0494079
0.0493144
0.0492221
0.0491316
0.0490422
0.0489546
0.0488678
0.048783
0.0486987
0.0486161
0.0485338
0.0484529
0.048372
0.0482924
0.0482123
0.0481335
0.048054
0.0479757
0.0478965
0.0478186
0.0477397
0.047662
0.0475835
0.0475065
0.0474284
0.0473517
0.047274
0.0471974
0.04712
0.0470444
0.0469683
0.0468945
0.0468208
0.0467498
0.0466792
0.0466115
0.0465438
0.0464789
0.0464134
0.0463498
0.0462856
0.0462235
0.0461609
0.0461006
0.0460412
0.0459839
0.0459273
0.0458722
0.0458177
0.0457652
0.0457125
0.0456616
0.0456111
0.0455616
0.0455128
0.0454658
0.0454195
0.0453749
0.0453304
0.0452883
0.0452451
0.0452048
0.045163
0.0451242
0.0450823
0.0450458
0.0450037
0.0449698
0.0449256
0.044895
0.0448485
0.0448223
0.0447749
0.0447499
0.0447031
0.0446794
0.0446297
0.00171952
0.00660896
0.0120996
0.0206251
0.0298572
0.0397311
0.0490316
0.0575144
0.0640666
0.0691471
0.0723514
0.0746171
0.0758933
0.0765456
0.0766997
0.0765945
0.0762312
0.0756578
0.0749632
0.074223
0.073432
0.0726101
0.0717787
0.0709457
0.0701302
0.069324
0.0685307
0.0677596
0.0670041
0.0662731
0.0655654
0.0648791
0.0642121
0.0635692
0.0629451
0.0623434
0.0617613
0.0611996
0.0606527
0.0601265
0.0596155
0.0591216
0.0586431
0.058179
0.0577301
0.0572945
0.0568717
0.0564619
0.0560636
0.0556774
0.0553022
0.0549381
0.0545834
0.0542386
0.0539036
0.0535777
0.0532601
0.0529512
0.0526502
0.0523572
0.0520712
0.0517926
0.0515207
0.0512556
0.0509967
0.0507442
0.0504976
0.0502568
0.0500216
0.0497917
0.049567
0.0493473
0.0491326
0.0489224
0.0487169
0.0485157
0.0483189
0.0481262
0.0479375
0.0477526
0.0475717
0.0473943
0.0472206
0.0470502
0.0468832
0.0467195
0.046559
0.0464015
0.0462471
0.0460955
0.0459469
0.0458009
0.0456577
0.045517
0.045379
0.0452434
0.0451102
0.0449794
0.044851
0.0447248
0.0446008
0.0444789
0.0443591
0.0442413
0.0441255
0.0440117
0.0438997
0.0437896
0.0436813
0.0435749
0.04347
0.0433669
0.0432654
0.0431656
0.0430672
0.0429703
0.042875
0.0427811
0.0426886
0.0425975
0.0425078
0.0424194
0.0423324
0.0422467
0.0421626
0.0420796
0.0419981
0.0419178
0.041839
0.041761
0.0416847
0.0416092
0.041535
0.0414613
0.0413889
0.0413168
0.0412458
0.0411747
0.0411047
0.0410345
0.0409653
0.0408958
0.0408272
0.0407583
0.0406903
0.0406219
0.0405548
0.0404871
0.0404207
0.0403538
0.0402878
0.0402213
0.0401562
0.0400909
0.0400274
0.0399642
0.039903
0.0398424
0.039784
0.0397259
0.0396701
0.0396141
0.0395596
0.0395048
0.0394517
0.0393982
0.0393467
0.0392958
0.0392466
0.0391983
0.0391511
0.0391046
0.0390595
0.0390146
0.038971
0.0389279
0.0388856
0.038844
0.0388037
0.0387642
0.0387258
0.0386879
0.0386517
0.038615
0.0385803
0.0385451
0.0385117
0.0384766
0.038445
0.0384101
0.0383804
0.0383442
0.0383169
0.0382791
0.0382555
0.0382166
0.0381941
0.038155
0.0381328
0.0380875
0.000874528
0.00258679
0.00465717
0.00794256
0.0121172
0.017269
0.0230039
0.0295118
0.0359493
0.0423001
0.0476633
0.0521851
0.0556589
0.058251
0.0600762
0.0613602
0.0621549
0.0625841
0.0627138
0.0626599
0.0624685
0.0621286
0.061714
0.0612335
0.0607227
0.0601849
0.0596206
0.0590504
0.0584732
0.057899
0.0573321
0.0567719
0.0562192
0.0556792
0.0551495
0.0546339
0.0541309
0.0536423
0.0531642
0.052701
0.0522498
0.0518115
0.0513858
0.0509715
0.0505698
0.050179
0.0497992
0.0494301
0.0490711
0.0487224
0.0483833
0.0480538
0.0477327
0.0474203
0.0471165
0.0468208
0.0465326
0.0462521
0.0459787
0.0457125
0.0454527
0.0451995
0.0449523
0.0447114
0.0444761
0.0442466
0.0440225
0.0438037
0.0435899
0.043381
0.0431768
0.0429773
0.0427823
0.0425914
0.0424049
0.0422222
0.0420436
0.0418687
0.0416975
0.0415299
0.0413658
0.041205
0.0410474
0.0408931
0.0407418
0.0405935
0.0404481
0.0403055
0.0401657
0.0400286
0.039894
0.039762
0.0396325
0.0395053
0.0393805
0.039258
0.0391377
0.0390195
0.0389035
0.0387895
0.0386776
0.0385676
0.0384594
0.0383532
0.0382488
0.0381462
0.0380452
0.037946
0.0378484
0.0377525
0.0376581
0.0375653
0.0374739
0.037384
0.0372956
0.0372085
0.0371228
0.0370384
0.0369553
0.0368735
0.0367929
0.0367135
0.0366355
0.0365585
0.036483
0.0364084
0.0363353
0.0362632
0.0361924
0.0361225
0.036054
0.0359863
0.0359199
0.035854
0.0357893
0.035725
0.0356618
0.0355987
0.0355366
0.0354745
0.0354134
0.0353522
0.0352919
0.0352314
0.0351717
0.0351119
0.0350532
0.0349942
0.0349364
0.0348783
0.034821
0.0347633
0.0347067
0.0346501
0.034595
0.0345401
0.0344869
0.0344342
0.0343834
0.034333
0.0342844
0.0342359
0.0341887
0.0341413
0.0340952
0.0340489
0.0340042
0.0339601
0.0339174
0.0338755
0.0338345
0.0337943
0.0337551
0.0337162
0.0336785
0.0336412
0.0336045
0.0335686
0.0335336
0.0334995
0.0334661
0.0334334
0.0334018
0.0333704
0.0333402
0.0333101
0.033281
0.0332513
0.0332235
0.0331942
0.0331681
0.0331379
0.0331137
0.0330823
0.0330611
0.0330287
0.0330088
0.0329755
0.0329557
0.0329142
0.000656665
0.00132177
0.00216786
0.00342212
0.00503513
0.00723226
0.00981284
0.0131023
0.0168128
0.0211512
0.0256765
0.0302673
0.034565
0.0383898
0.0416069
0.0442723
0.0463756
0.0480011
0.0492018
0.050074
0.0506753
0.0510449
0.0512415
0.0512813
0.0512334
0.0511019
0.0508851
0.0506236
0.0503194
0.0499867
0.0496383
0.049271
0.0488921
0.0485089
0.0481213
0.0477343
0.0473496
0.0469688
0.0465905
0.0462186
0.0458524
0.0454925
0.0451402
0.0447944
0.0444567
0.044126
0.0438028
0.0434871
0.0431786
0.0428776
0.0425838
0.0422974
0.0420174
0.0417443
0.0414779
0.0412181
0.0409642
0.0407167
0.0404751
0.0402393
0.0400089
0.039784
0.0395643
0.0393498
0.0391402
0.0389354
0.0387354
0.0385399
0.0383487
0.0381618
0.037979
0.0378002
0.0376254
0.0374542
0.0372868
0.0371229
0.0369624
0.0368054
0.0366515
0.0365008
0.0363532
0.0362086
0.0360669
0.035928
0.0357918
0.0356583
0.0355274
0.035399
0.0352731
0.0351496
0.0350284
0.0349095
0.0347927
0.0346782
0.0345657
0.0344553
0.0343468
0.0342403
0.0341358
0.034033
0.0339321
0.033833
0.0337355
0.0336398
0.0335456
0.0334531
0.0333621
0.0332727
0.0331847
0.0330983
0.0330132
0.0329296
0.0328472
0.0327663
0.0326866
0.0326081
0.0325309
0.032455
0.0323801
0.0323065
0.0322339
0.0321624
0.0320921
0.0320228
0.0319547
0.0318876
0.0318217
0.0317567
0.031693
0.03163
0.0315683
0.0315074
0.0314477
0.0313886
0.0313306
0.0312731
0.0312165
0.0311603
0.031105
0.0310498
0.0309956
0.0309413
0.030888
0.0308345
0.0307818
0.0307291
0.0306774
0.0306256
0.0305747
0.0305238
0.0304734
0.0304228
0.0303731
0.0303234
0.0302749
0.0302268
0.0301799
0.0301335
0.0300887
0.0300443
0.0300015
0.0299589
0.0299173
0.0298757
0.0298351
0.0297945
0.0297551
0.0297163
0.0296787
0.0296418
0.0296057
0.0295704
0.0295359
0.0295017
0.0294685
0.0294357
0.0294034
0.029372
0.0293412
0.0293112
0.0292818
0.0292532
0.0292253
0.0291979
0.0291713
0.0291451
0.0291195
0.0290939
0.0290693
0.0290443
0.029021
0.0289954
0.0289737
0.0289472
0.028928
0.0289006
0.028883
0.0288542
0.0288368
0.028799
0.000586347
0.000878574
0.00127393
0.00181858
0.00247074
0.0033693
0.00442247
0.00582718
0.00748516
0.00959053
0.0120581
0.0149213
0.0180661
0.0213704
0.0246293
0.0277374
0.0305521
0.0330274
0.035127
0.0368802
0.0383083
0.0394475
0.0403407
0.0410166
0.0415212
0.0418839
0.0421168
0.0422531
0.0423007
0.0422837
0.0422234
0.0421071
0.0419559
0.0417786
0.0415766
0.041358
0.0411283
0.040887
0.040637
0.0403823
0.0401249
0.0398642
0.0396043
0.0393446
0.0390865
0.03883
0.0385762
0.0383254
0.0380778
0.037834
0.0375942
0.0373586
0.0371268
0.0368993
0.0366761
0.0364573
0.0362425
0.0360323
0.0358261
0.0356243
0.0354264
0.0352327
0.0350429
0.034857
0.0346749
0.0344967
0.0343222
0.0341512
0.0339838
0.0338198
0.0336592
0.0335018
0.0333477
0.0331966
0.0330487
0.0329037
0.0327615
0.0326223
0.0324857
0.0323518
0.0322206
0.0320919
0.0319657
0.0318419
0.0317204
0.0316013
0.0314844
0.0313697
0.0312571
0.0311466
0.0310381
0.0309316
0.030827
0.0307244
0.0306235
0.0305245
0.0304272
0.0303316
0.0302377
0.0301454
0.0300547
0.0299656
0.029878
0.0297919
0.0297072
0.029624
0.0295421
0.0294616
0.0293824
0.0293046
0.029228
0.0291526
0.0290785
0.0290056
0.0289338
0.0288631
0.0287935
0.028725
0.0286576
0.0285912
0.0285258
0.0284613
0.0283979
0.0283353
0.0282739
0.0282133
0.0281538
0.0280951
0.0280375
0.0279807
0.027925
0.0278701
0.0278163
0.0277631
0.0277109
0.0276593
0.0276086
0.0275583
0.0275088
0.0274596
0.0274112
0.027363
0.0273155
0.0272681
0.0272213
0.0271745
0.0271287
0.0270827
0.0270377
0.0269926
0.026948
0.0269032
0.0268591
0.0268151
0.026772
0.0267292
0.0266875
0.0266462
0.0266063
0.0265667
0.0265285
0.0264906
0.0264536
0.0264166
0.0263804
0.0263442
0.0263091
0.0262746
0.026241
0.0262081
0.026176
0.0261445
0.0261137
0.0260833
0.0260537
0.0260245
0.0259958
0.0259678
0.0259404
0.0259138
0.0258875
0.0258621
0.0258372
0.025813
0.0257893
0.0257663
0.0257434
0.0257211
0.0256991
0.0256773
0.0256565
0.0256344
0.0256148
0.0255921
0.0255747
0.0255511
0.0255354
0.0255101
0.0254948
0.0254607
0.000560627
0.000698463
0.000903835
0.00117639
0.00147851
0.00188131
0.00233221
0.00292355
0.00361876
0.00451237
0.00559986
0.00694967
0.00856483
0.0104647
0.0125942
0.0149167
0.017326
0.0197379
0.0220475
0.024196
0.0261331
0.0278413
0.029319
0.0305748
0.0316283
0.0325042
0.0332157
0.0337908
0.0342419
0.0345902
0.0348548
0.0350421
0.0351644
0.0352354
0.0352569
0.0352443
0.0352047
0.0351325
0.0350391
0.0349275
0.0348027
0.0346623
0.0345154
0.0343601
0.0341978
0.0340306
0.0338597
0.0336865
0.033511
0.0333348
0.0331587
0.0329826
0.0328069
0.0326321
0.0324587
0.0322869
0.0321167
0.0319486
0.0317826
0.0316189
0.0314573
0.0312981
0.0311412
0.0309868
0.0308349
0.0306855
0.0305385
0.0303941
0.0302521
0.0301126
0.0299754
0.0298407
0.0297084
0.0295784
0.0294508
0.0293254
0.0292022
0.0290813
0.0289624
0.0288458
0.0287312
0.0286186
0.028508
0.0283995
0.0282928
0.028188
0.028085
0.0279838
0.0278845
0.0277868
0.0276908
0.0275965
0.0275038
0.0274128
0.0273232
0.0272352
0.0271486
0.0270636
0.0269799
0.0268977
0.0268168
0.0267373
0.026659
0.0265821
0.0265064
0.0264319
0.0263587
0.0262866
0.0262157
0.0261459
0.0260772
0.0260096
0.0259431
0.0258776
0.0258131
0.0257496
0.0256871
0.0256256
0.0255649
0.0255052
0.0254463
0.0253883
0.0253311
0.0252748
0.0252194
0.0251647
0.025111
0.0250581
0.0250061
0.0249549
0.0249046
0.0248551
0.0248066
0.0247587
0.0247118
0.0246654
0.0246199
0.0245748
0.0245305
0.0244866
0.0244434
0.0244003
0.024358
0.0243158
0.0242741
0.0242325
0.0241916
0.0241507
0.0241106
0.0240705
0.0240307
0.0239908
0.0239514
0.0239121
0.0238735
0.0238352
0.0237978
0.0237608
0.0237248
0.0236893
0.0236549
0.0236208
0.0235876
0.0235543
0.0235218
0.0234893
0.0234577
0.0234266
0.0233963
0.0233667
0.0233377
0.0233094
0.0232816
0.0232543
0.0232277
0.0232015
0.0231757
0.0231505
0.0231258
0.0231019
0.0230783
0.0230555
0.0230331
0.0230114
0.0229901
0.0229696
0.0229491
0.0229293
0.0229095
0.0228903
0.0228716
0.0228522
0.0228345
0.0228147
0.022799
0.0227782
0.0227642
0.0227419
0.0227283
0.0226976
0.000550227
0.000617996
0.000729586
0.000880114
0.00103897
0.00124312
0.00146184
0.00173459
0.00204519
0.00243022
0.00289181
0.00346877
0.00417085
0.00504137
0.00608474
0.00732422
0.00874622
0.0103389
0.0120542
0.0138437
0.0156443
0.0174016
0.0190682
0.0206117
0.0220118
0.023266
0.0243683
0.0253313
0.0261593
0.0268676
0.0274676
0.0279711
0.0283873
0.0287295
0.0290041
0.0292221
0.0293923
0.0295177
0.0296056
0.0296604
0.0296898
0.0296892
0.0296757
0.0296426
0.0295922
0.0295295
0.0294558
0.0293735
0.029282
0.0291849
0.0290831
0.028976
0.0288651
0.0287513
0.0286352
0.0285176
0.0283983
0.0282782
0.0281579
0.0280373
0.0279166
0.0277963
0.0276764
0.0275571
0.0274387
0.0273212
0.0272047
0.0270894
0.0269753
0.0268624
0.0267509
0.0266407
0.0265319
0.0264245
0.0263186
0.0262141
0.0261111
0.0260096
0.0259095
0.0258109
0.0257138
0.0256181
0.0255238
0.025431
0.0253396
0.0252496
0.025161
0.0250737
0.0249878
0.0249033
0.02482
0.0247381
0.0246574
0.024578
0.0244998
0.0244228
0.024347
0.0242724
0.024199
0.0241267
0.0240555
0.0239855
0.0239164
0.0238485
0.0237816
0.0237157
0.0236509
0.023587
0.0235241
0.0234621
0.0234011
0.023341
0.0232818
0.0232235
0.0231661
0.0231094
0.0230537
0.0229987
0.0229445
0.0228911
0.0228385
0.0227865
0.0227354
0.0226849
0.0226352
0.0225861
0.0225379
0.0224904
0.0224437
0.0223976
0.0223524
0.022308
0.0222644
0.0222214
0.0221793
0.0221377
0.022097
0.0220567
0.0220171
0.0219779
0.0219393
0.021901
0.0218633
0.0218256
0.0217885
0.0217514
0.021715
0.0216785
0.0216428
0.0216069
0.0215714
0.0215357
0.0215004
0.0214651
0.0214304
0.021396
0.0213623
0.0213288
0.0212963
0.0212642
0.021233
0.0212022
0.0211721
0.021142
0.0211126
0.0210831
0.0210545
0.0210263
0.0209988
0.0209719
0.0209456
0.02092
0.0208948
0.02087
0.0208459
0.0208221
0.0207988
0.020776
0.0207536
0.020732
0.0207105
0.02069
0.0206696
0.0206501
0.0206308
0.0206124
0.0205938
0.0205761
0.0205583
0.0205411
0.0205242
0.0205069
0.020491
0.0204735
0.0204592
0.0204409
0.0204281
0.0204084
0.0203963
0.0203687
0.000545457
0.00058
0.000640661
0.000727494
0.000818371
0.000932091
0.00105123
0.00119268
0.00134834
0.00153176
0.00174362
0.00199903
0.00230286
0.00267775
0.00313079
0.00368638
0.00435519
0.00515335
0.00608364
0.00714588
0.00832433
0.00959701
0.0109301
0.0122889
0.0136342
0.0149406
0.016177
0.0173323
0.0183911
0.0193536
0.0202174
0.0209874
0.0216664
0.022263
0.0227822
0.0232323
0.0236197
0.0239508
0.0242314
0.0244662
0.0246632
0.0248216
0.0249516
0.0250538
0.0251309
0.0251867
0.0252233
0.0252442
0.0252479
0.0252417
0.0252248
0.0251962
0.0251594
0.0251153
0.0250645
0.0250086
0.0249471
0.0248818
0.0248136
0.0247418
0.0246674
0.0245909
0.0245126
0.0244328
0.024352
0.0242701
0.0241876
0.0241048
0.0240217
0.0239384
0.023855
0.0237718
0.0236889
0.0236063
0.0235241
0.0234424
0.0233613
0.0232808
0.0232009
0.0231218
0.0230434
0.0229658
0.022889
0.022813
0.0227378
0.0226635
0.02259
0.0225174
0.0224457
0.0223749
0.0223049
0.0222359
0.0221677
0.0221004
0.0220339
0.0219684
0.0219037
0.0218399
0.0217769
0.0217148
0.0216535
0.0215931
0.0215335
0.0214747
0.0214167
0.0213595
0.0213031
0.0212475
0.0211926
0.0211385
0.0210851
0.0210325
0.0209806
0.0209294
0.020879
0.0208292
0.0207801
0.0207316
0.0206838
0.0206366
0.0205901
0.0205441
0.0204987
0.0204539
0.0204098
0.0203662
0.0203233
0.020281
0.0202394
0.0201984
0.0201581
0.0201184
0.0200796
0.0200413
0.0200038
0.0199668
0.0199305
0.0198947
0.0198595
0.0198247
0.0197905
0.0197565
0.019723
0.0196896
0.0196567
0.0196237
0.0195914
0.0195589
0.019527
0.019495
0.0194633
0.0194314
0.0193998
0.019368
0.0193369
0.0193058
0.0192754
0.0192451
0.0192157
0.0191865
0.0191582
0.0191301
0.0191028
0.0190755
0.0190488
0.019022
0.0189959
0.0189702
0.0189452
0.0189206
0.0188967
0.0188733
0.0188503
0.0188277
0.0188058
0.0187841
0.0187629
0.0187422
0.0187218
0.0187021
0.0186825
0.0186638
0.0186453
0.0186276
0.0186101
0.0185933
0.0185766
0.0185605
0.0185444
0.0185289
0.0185137
0.0184982
0.0184838
0.0184682
0.0184552
0.0184389
0.0184273
0.0184097
0.0183989
0.0183742
0.00054288
0.000561114
0.000593287
0.000643352
0.000697269
0.000764179
0.000834243
0.000914598
0.00100111
0.00109882
0.00120749
0.00133273
0.0014763
0.00164715
0.00184792
0.00209112
0.00238371
0.0027372
0.00316236
0.00367036
0.00426655
0.00495745
0.00574
0.00660943
0.00754781
0.00854275
0.0095666
0.010602
0.0116227
0.0126143
0.0135602
0.0144519
0.0152809
0.0160456
0.016744
0.0173787
0.0179507
0.0184643
0.0189227
0.0193294
0.0196904
0.0200069
0.0202853
0.020528
0.0207385
0.0209201
0.0210752
0.0212073
0.0213172
0.0214087
0.0214839
0.0215433
0.0215889
0.0216223
0.0216446
0.0216577
0.0216605
0.0216571
0.0216474
0.0216302
0.0216076
0.0215803
0.0215487
0.0215131
0.0214745
0.0214323
0.0213878
0.0213414
0.0212927
0.0212422
0.0211903
0.021137
0.0210828
0.0210275
0.0209716
0.020915
0.0208578
0.0208005
0.0207428
0.020685
0.020627
0.0205691
0.0205112
0.0204535
0.0203958
0.0203384
0.0202813
0.0202244
0.020168
0.0201119
0.0200561
0.0200008
0.0199459
0.0198915
0.0198375
0.0197841
0.0197311
0.0196786
0.0196267
0.0195753
0.0195244
0.019474
0.0194242
0.0193749
0.0193262
0.019278
0.0192303
0.0191832
0.0191367
0.0190906
0.0190451
0.0190002
0.0189558
0.0189119
0.0188685
0.0188257
0.0187833
0.0187415
0.0187001
0.0186593
0.0186188
0.0185789
0.0185394
0.0185003
0.0184618
0.0184237
0.0183861
0.018349
0.0183125
0.0182765
0.018241
0.0182062
0.018172
0.0181383
0.0181053
0.0180728
0.0180409
0.0180094
0.0179785
0.0179479
0.0179178
0.0178879
0.0178585
0.0178291
0.0178001
0.0177711
0.0177425
0.0177138
0.0176855
0.0176571
0.017629
0.0176006
0.0175723
0.0175439
0.017516
0.017488
0.0174606
0.0174333
0.0174066
0.0173801
0.0173544
0.0173288
0.017304
0.0172792
0.0172549
0.0172305
0.0172068
0.0171833
0.0171605
0.0171381
0.0171161
0.0170948
0.0170737
0.0170531
0.0170331
0.0170133
0.016994
0.0169751
0.0169565
0.0169385
0.0169206
0.0169036
0.0168866
0.0168706
0.0168546
0.0168393
0.0168241
0.0168096
0.016795
0.016781
0.0167672
0.0167533
0.0167402
0.0167262
0.0167145
0.0166999
0.0166894
0.0166736
0.0166639
0.0166419
0.000541242
0.000550905
0.000567317
0.000595193
0.000627032
0.000667058
0.000709713
0.000757887
0.000809336
0.000865936
0.000927148
0.000995289
0.00107048
0.00115665
0.00125414
0.00136855
0.00150191
0.00166039
0.00184897
0.00207479
0.00234312
0.00266345
0.00303988
0.00348021
0.00398389
0.00455601
0.00518892
0.00587982
0.00661507
0.00738504
0.00817375
0.00896905
0.00975573
0.0105241
0.0112635
0.0119685
0.012633
0.0132549
0.0138325
0.0143654
0.0148557
0.015303
0.015711
0.0160807
0.0164152
0.0167166
0.0169874
0.01723
0.0174464
0.0176388
0.0178098
0.0179606
0.0180931
0.018209
0.0183095
0.0183967
0.0184705
0.0185334
0.0185864
0.0186295
0.018664
0.0186908
0.0187106
0.0187238
0.0187317
0.0187333
0.0187311
0.0187251
0.0187143
0.0187002
0.018683
0.0186628
0.0186403
0.0186153
0.0185884
0.0185594
0.0185288
0.0184971
0.0184637
0.0184293
0.0183938
0.0183575
0.0183203
0.0182825
0.0182441
0.0182052
0.0181659
0.0181261
0.0180862
0.0180461
0.0180058
0.0179653
0.0179248
0.0178843
0.0178437
0.0178033
0.0177629
0.0177226
0.0176825
0.0176425
0.0176026
0.017563
0.0175236
0.0174845
0.0174456
0.0174069
0.0173685
0.0173304
0.0172926
0.0172551
0.0172179
0.017181
0.0171444
0.0171081
0.0170722
0.0170366
0.0170013
0.0169663
0.0169316
0.0168973
0.0168632
0.0168295
0.0167961
0.0167629
0.0167301
0.0166976
0.0166656
0.0166338
0.0166025
0.0165716
0.0165411
0.0165111
0.0164817
0.0164526
0.0164242
0.0163961
0.0163686
0.0163414
0.0163147
0.0162883
0.0162623
0.0162364
0.016211
0.0161855
0.0161604
0.0161351
0.0161103
0.0160852
0.0160604
0.0160355
0.0160108
0.0159857
0.0159607
0.0159355
0.0159106
0.0158856
0.0158611
0.0158365
0.0158125
0.0157885
0.0157653
0.0157421
0.0157196
0.0156972
0.0156751
0.015653
0.0156314
0.01561
0.0155892
0.0155687
0.0155487
0.0155292
0.01551
0.0154912
0.0154729
0.0154549
0.0154372
0.01542
0.015403
0.0153865
0.0153703
0.0153547
0.0153393
0.0153246
0.0153101
0.0152962
0.0152824
0.0152691
0.0152559
0.0152432
0.0152308
0.0152183
0.0152065
0.0151939
0.0151833
0.0151703
0.0151608
0.0151466
0.015138
0.0151184
0.000540075
0.000544666
0.000552522
0.000566979
0.000584992
0.000608479
0.000634355
0.000663719
0.000695225
0.000729583
0.000766173
0.000806083
0.000848853
0.000896471
0.000948492
0.00100764
0.00107413
0.00115093
0.00123974
0.00134368
0.00146532
0.00160984
0.00177936
0.00198065
0.0022157
0.00249178
0.00280955
0.0031744
0.00358521
0.00404317
0.00454376
0.00508374
0.00565477
0.00625011
0.00685982
0.00747614
0.00808962
0.00869333
0.00928078
0.00984635
0.0103875
0.0109001
0.0113838
0.0118368
0.0122599
0.0126527
0.0130167
0.0133523
0.0136614
0.0139449
0.0142046
0.0144418
0.0146581
0.0148547
0.0150331
0.0151948
0.0153406
0.0154721
0.0155903
0.0156963
0.0157908
0.0158748
0.0159492
0.0160146
0.0160723
0.0161219
0.0161648
0.0162018
0.0162327
0.0162581
0.0162787
0.0162948
0.0163068
0.0163149
0.0163198
0.0163209
0.0163196
0.0163159
0.0163092
0.0163004
0.0162896
0.0162769
0.0162625
0.0162465
0.0162291
0.0162105
0.0161906
0.0161695
0.0161478
0.0161251
0.0161015
0.0160773
0.0160524
0.016027
0.016001
0.0159747
0.0159479
0.0159208
0.0158935
0.0158658
0.0158379
0.01581
0.0157818
0.0157535
0.0157252
0.0156967
0.0156683
0.0156398
0.0156114
0.0155829
0.0155546
0.0155262
0.015498
0.0154698
0.0154418
0.0154139
0.015386
0.0153583
0.0153308
0.0153033
0.015276
0.0152488
0.0152217
0.0151948
0.0151681
0.0151415
0.0151152
0.015089
0.0150632
0.0150376
0.0150123
0.0149874
0.0149628
0.0149386
0.0149148
0.0148913
0.0148683
0.0148455
0.0148231
0.0148009
0.0147791
0.0147573
0.0147358
0.0147143
0.014693
0.0146715
0.0146504
0.0146289
0.0146077
0.0145862
0.0145649
0.0145431
0.0145214
0.0144993
0.0144775
0.0144554
0.0144338
0.0144119
0.0143905
0.014369
0.0143482
0.0143274
0.0143071
0.0142869
0.0142671
0.0142471
0.0142276
0.0142082
0.0141893
0.0141707
0.0141526
0.0141348
0.0141173
0.0141002
0.0140836
0.0140672
0.0140511
0.0140355
0.0140201
0.0140051
0.0139903
0.0139761
0.0139621
0.0139487
0.0139356
0.0139229
0.0139104
0.0138984
0.0138865
0.013875
0.0138639
0.0138526
0.013842
0.0138308
0.0138212
0.0138096
0.0138011
0.0137884
0.0137807
0.0137634
0.000539162
0.000540423
0.000543531
0.000549995
0.000559298
0.000572246
0.000587292
0.000604811
0.000623945
0.000644983
0.000667344
0.000691585
0.000717139
0.000745073
0.000774838
0.000807821
0.000843861
0.000884253
0.000929659
0.000981426
0.00104033
0.00110901
0.00118777
0.00128056
0.00138801
0.00151439
0.00166097
0.00183238
0.00203009
0.00225783
0.00251673
0.00280935
0.00313518
0.00349421
0.00388393
0.00430172
0.00474296
0.00520265
0.00567557
0.00615511
0.00663714
0.00711488
0.00758531
0.00804331
0.00848682
0.00891268
0.0093199
0.00970661
0.0100728
0.0104178
0.010742
0.0110455
0.0113291
0.0115934
0.011839
0.0120671
0.0122782
0.0124735
0.0126539
0.0128202
0.0129732
0.0131138
0.0132429
0.013361
0.0134692
0.0135678
0.0136577
0.0137395
0.0138137
0.0138808
0.0139413
0.0139957
0.0140445
0.0140879
0.0141267
0.0141606
0.0141904
0.0142165
0.0142388
0.0142577
0.0142735
0.0142865
0.0142967
0.0143045
0.0143099
0.0143132
0.0143144
0.0143138
0.0143119
0.014308
0.0143027
0.0142961
0.0142882
0.0142793
0.0142692
0.0142581
0.0142462
0.0142334
0.01422
0.0142056
0.0141908
0.0141754
0.0141594
0.0141429
0.014126
0.0141086
0.0140909
0.0140728
0.0140545
0.0140359
0.014017
0.0139979
0.0139787
0.0139592
0.0139397
0.01392
0.0139002
0.0138803
0.0138603
0.0138402
0.01382
0.0137998
0.0137796
0.0137593
0.013739
0.0137187
0.0136985
0.0136783
0.0136583
0.0136383
0.0136186
0.013599
0.0135796
0.0135605
0.0135416
0.0135229
0.0135046
0.0134864
0.0134685
0.0134507
0.0134331
0.0134155
0.0133982
0.0133807
0.0133634
0.0133458
0.0133284
0.0133106
0.013293
0.0132751
0.0132572
0.0132388
0.0132205
0.0132016
0.0131829
0.0131638
0.0131451
0.013126
0.0131073
0.0130884
0.01307
0.0130515
0.0130336
0.0130156
0.012998
0.0129801
0.0129627
0.0129454
0.0129284
0.0129117
0.0128953
0.0128793
0.0128635
0.0128481
0.0128332
0.0128183
0.0128038
0.0127897
0.0127758
0.0127622
0.0127488
0.012736
0.0127234
0.0127113
0.0126995
0.012688
0.0126768
0.012666
0.0126554
0.012645
0.012635
0.0126249
0.0126155
0.0126055
0.0125971
0.0125867
0.0125792
0.0125679
0.0125611
0.0125461
0.000538256
0.000537313
0.000537711
0.00053941
0.000543231
0.000549402
0.000557333
0.000567062
0.000578073
0.000590534
0.000603954
0.000618618
0.000634042
0.000650797
0.000668431
0.000687636
0.000708236
0.000730801
0.000755546
0.000783205
0.000813774
0.000848754
0.000887887
0.000933114
0.000984576
0.00104412
0.0011126
0.00119222
0.00128386
0.00139002
0.00151213
0.00165264
0.00181298
0.00199499
0.00219999
0.00242895
0.00268224
0.00295912
0.00325907
0.00357929
0.00391853
0.00427232
0.00463848
0.00501222
0.00539082
0.00576997
0.00614712
0.00651861
0.00688264
0.00723655
0.00757913
0.00790887
0.00822503
0.00852686
0.00881411
0.00908669
0.00934451
0.00958807
0.00981745
0.0100332
0.0102357
0.0104255
0.0106032
0.0107692
0.0109244
0.0110689
0.0112037
0.011329
0.0114455
0.0115537
0.011654
0.011747
0.0118331
0.0119125
0.011986
0.0120536
0.0121158
0.0121731
0.0122256
0.0122737
0.0123176
0.0123576
0.0123939
0.0124269
0.0124566
0.0124834
0.0125073
0.0125285
0.0125474
0.012564
0.0125784
0.0125907
0.0126012
0.0126099
0.012617
0.0126225
0.0126266
0.0126292
0.0126308
0.0126308
0.0126301
0.0126284
0.0126255
0.0126217
0.0126171
0.0126118
0.0126057
0.0125989
0.0125915
0.0125834
0.0125749
0.0125658
0.0125563
0.0125462
0.0125358
0.012525
0.0125138
0.0125023
0.0124905
0.0124783
0.0124659
0.0124532
0.0124403
0.0124272
0.0124139
0.0124003