/*--------------------------------*- C++ -*----------------------------------*\
  =========                 |
  \\      /  F ield         | OpenFOAM: The Open Source CFD Toolbox
   \\    /   O peration     | Website:  https://openfoam.org
    \\  /    A nd           | Version:  12
     \\/     M anipulation  |
\*---------------------------------------------------------------------------*/
FoamFile
{
    format      ascii;
    class       volScalarField;
    location    "400";
    object      k;
}
// * * * * * * * * * * * * * * * * * * * * * * * * * * * * * * * * * * * * * //

dimensions      [0 2 -2 0 0 0 0];

internalField   nonuniform List<scalar> 
20000
(
0.00121539
0.000456549
0.000505716
0.000674905
0.000785941
0.00087443
0.000962124
0.00105499
0.00113206
0.00120303
0.00125072
0.00130254
0.00133578
0.00136897
0.0013972
0.00142302
0.00144267
0.00145971
0.00147325
0.00148556
0.0014948
0.00150256
0.00150865
0.0015135
0.00151758
0.00152024
0.00152218
0.00152336
0.00152367
0.00152351
0.00152301
0.00152192
0.00152039
0.00151864
0.00151652
0.00151419
0.00151176
0.0015091
0.00150618
0.00150325
0.00150011
0.00149695
0.00149365
0.00149031
0.00148694
0.00148351
0.00148
0.00147652
0.00147297
0.00146945
0.00146591
0.0014624
0.00145884
0.00145532
0.00145182
0.00144834
0.00144486
0.00144141
0.00143799
0.00143459
0.00143121
0.00142787
0.00142455
0.00142127
0.001418
0.00141478
0.00141158
0.00140843
0.00140531
0.00140222
0.00139916
0.00139614
0.00139316
0.0013902
0.00138729
0.0013844
0.00138156
0.00137874
0.00137597
0.00137322
0.00137051
0.00136783
0.00136519
0.00136258
0.00136
0.00135746
0.00135495
0.00135246
0.00135002
0.0013476
0.00134521
0.00134285
0.00134053
0.00133823
0.00133597
0.00133373
0.00133152
0.00132933
0.00132718
0.00132506
0.00132296
0.00132088
0.00131884
0.00131682
0.00131482
0.00131286
0.00131091
0.00130899
0.00130709
0.00130522
0.00130337
0.00130154
0.00129973
0.00129795
0.00129618
0.00129443
0.0012927
0.001291
0.00128931
0.00128764
0.00128599
0.00128436
0.00128275
0.00128116
0.00127961
0.00127806
0.00127655
0.00127505
0.00127359
0.00127213
0.00127071
0.00126929
0.0012679
0.0012665
0.00126513
0.00126374
0.00126237
0.00126097
0.0012596
0.00125819
0.0012568
0.00125538
0.00125397
0.00125252
0.00125109
0.00124962
0.00124818
0.00124669
0.00124522
0.00124371
0.00124221
0.00124066
0.00123916
0.00123763
0.00123615
0.00123467
0.00123325
0.00123183
0.00123049
0.00122912
0.00122782
0.00122648
0.00122518
0.00122384
0.00122256
0.00122124
0.00121999
0.00121876
0.00121758
0.00121641
0.00121526
0.00121414
0.00121305
0.00121195
0.00121089
0.00120984
0.00120879
0.00120778
0.00120681
0.00120586
0.00120493
0.00120403
0.00120316
0.00120228
0.00120145
0.0012006
0.00119979
0.00119893
0.00119818
0.00119731
0.00119662
0.00119567
0.00119507
0.00119405
0.00119359
0.00119255
0.00119213
0.00119111
0.00119082
0.00118958
0.00309521
0.00342052
0.00442796
0.00580077
0.00659018
0.00721082
0.00780963
0.0084253
0.00891414
0.00935078
0.00962774
0.00992736
0.0101077
0.0102865
0.010434
0.0105669
0.0106621
0.0107423
0.0108021
0.0108554
0.0108912
0.0109191
0.010938
0.0109504
0.0109591
0.0109602
0.0109578
0.0109516
0.0109411
0.0109283
0.0109141
0.0108971
0.010878
0.0108581
0.0108365
0.010814
0.0107913
0.0107678
0.010743
0.0107185
0.010693
0.0106678
0.010642
0.0106162
0.0105904
0.0105646
0.0105385
0.0105127
0.0104867
0.0104612
0.0104356
0.0104104
0.0103851
0.0103601
0.0103353
0.0103108
0.0102865
0.0102624
0.0102386
0.0102151
0.0101918
0.0101687
0.0101459
0.0101234
0.0101011
0.0100792
0.0100574
0.010036
0.0100148
0.00999395
0.0099733
0.00995293
0.00993282
0.00991296
0.00989338
0.00987404
0.00985497
0.00983615
0.00981759
0.00979924
0.0097812
0.00976334
0.00974576
0.00972837
0.00971125
0.00969433
0.00967768
0.0096612
0.009645
0.00962896
0.00961318
0.00959756
0.00958221
0.009567
0.00955204
0.00953726
0.00952268
0.00950828
0.0094941
0.00948008
0.00946626
0.00945261
0.00943915
0.00942585
0.00941273
0.00939979
0.00938699
0.00937438
0.00936191
0.00934962
0.00933745
0.00932547
0.0093136
0.0093019
0.00929031
0.00927887
0.00926755
0.00925638
0.00924531
0.0092344
0.00922359
0.00921293
0.0092024
0.00919201
0.00918181
0.0091717
0.0091618
0.009152
0.00914239
0.00913285
0.00912355
0.00911425
0.00910517
0.00909602
0.00908706
0.009078
0.00906908
0.00906
0.00905108
0.00904195
0.00903294
0.0090237
0.00901459
0.00900523
0.00899599
0.00898653
0.00897724
0.00896765
0.00895823
0.00894851
0.00893888
0.008929
0.00891937
0.00890955
0.00890006
0.00889051
0.00888139
0.00887227
0.00886358
0.0088548
0.00884643
0.00883783
0.00882947
0.00882092
0.00881268
0.00880424
0.00879622
0.00878829
0.00878068
0.00877317
0.00876581
0.00875855
0.00875157
0.00874448
0.00873768
0.00873089
0.0087242
0.00871768
0.00871139
0.00870526
0.0086993
0.00869343
0.00868785
0.00868212
0.00867678
0.00867131
0.00866609
0.00866054
0.00865567
0.00865006
0.0086456
0.00863951
0.00863563
0.00862906
0.00862603
0.00861934
0.00861663
0.00861003
0.00860803
0.00860034
0.00355493
0.00360063
0.00411383
0.00536326
0.0066823
0.00807073
0.00935278
0.0105356
0.0114748
0.0122836
0.0128606
0.0134051
0.013795
0.0141439
0.0144335
0.0146883
0.014883
0.0150484
0.0151797
0.0152948
0.0153817
0.0154539
0.0155103
0.0155549
0.0155912
0.015616
0.0156329
0.0156435
0.015647
0.0156462
0.015642
0.0156331
0.0156204
0.0156058
0.0155882
0.0155689
0.0155484
0.0155262
0.015502
0.0154776
0.0154516
0.0154253
0.0153981
0.0153704
0.0153426
0.0153142
0.0152854
0.0152566
0.0152274
0.0151985
0.0151694
0.0151405
0.0151114
0.0150825
0.0150538
0.0150252
0.0149967
0.0149684
0.0149404
0.0149126
0.014885
0.0148576
0.0148304
0.0148036
0.0147769
0.0147506
0.0147245
0.0146987
0.0146732
0.0146479
0.0146229
0.0145983
0.0145739
0.0145497
0.0145259
0.0145024
0.0144791
0.0144561
0.0144334
0.014411
0.0143889
0.014367
0.0143454
0.014324
0.014303
0.0142822
0.0142616
0.0142413
0.0142213
0.0142015
0.014182
0.0141627
0.0141437
0.0141249
0.0141063
0.014088
0.0140699
0.0140521
0.0140344
0.014017
0.0139998
0.0139828
0.0139661
0.0139495
0.0139332
0.013917
0.0139011
0.0138853
0.0138698
0.0138544
0.0138392
0.0138243
0.0138094
0.0137948
0.0137803
0.013766
0.0137518
0.0137378
0.0137239
0.0137103
0.0136967
0.0136833
0.0136701
0.0136571
0.0136442
0.0136315
0.0136191
0.0136068
0.0135947
0.0135827
0.013571
0.0135593
0.0135479
0.0135364
0.0135251
0.0135138
0.0135026
0.0134912
0.01348
0.0134686
0.0134573
0.0134457
0.0134344
0.0134226
0.0134111
0.0133992
0.0133876
0.0133756
0.0133638
0.0133517
0.0133396
0.0133272
0.0133151
0.0133027
0.0132908
0.0132788
0.0132672
0.0132557
0.0132447
0.0132337
0.0132231
0.0132123
0.0132017
0.0131909
0.0131805
0.0131698
0.0131596
0.0131496
0.0131399
0.0131304
0.013121
0.0131118
0.013103
0.013094
0.0130853
0.0130767
0.0130682
0.01306
0.013052
0.0130442
0.0130366
0.0130292
0.0130221
0.0130149
0.0130081
0.0130013
0.0129946
0.0129877
0.0129814
0.0129746
0.0129687
0.0129614
0.0129561
0.0129483
0.0129442
0.012936
0.0129322
0.0129241
0.0129207
0.0129114
0.00376345
0.00367998
0.00376213
0.00416026
0.00503525
0.00623645
0.00752922
0.00891373
0.0101731
0.0113387
0.0122827
0.0131475
0.0138484
0.014461
0.0149771
0.0154269
0.0157887
0.0160995
0.0163567
0.0165817
0.0167643
0.0169208
0.0170511
0.0171616
0.0172558
0.0173324
0.0173952
0.017447
0.0174875
0.0175204
0.0175456
0.0175637
0.0175757
0.0175833
0.0175858
0.017585
0.0175814
0.0175744
0.0175641
0.0175525
0.0175383
0.0175227
0.0175054
0.0174867
0.0174673
0.0174465
0.0174247
0.0174024
0.0173793
0.0173559
0.0173319
0.0173077
0.0172829
0.017258
0.017233
0.0172078
0.0171825
0.0171571
0.0171318
0.0171064
0.0170811
0.0170558
0.0170305
0.0170054
0.0169803
0.0169555
0.0169307
0.0169062
0.0168818
0.0168576
0.0168335
0.0168096
0.016786
0.0167625
0.0167393
0.0167163
0.0166934
0.0166709
0.0166485
0.0166263
0.0166045
0.0165828
0.0165613
0.0165401
0.0165191
0.0164983
0.0164778
0.0164574
0.0164373
0.0164175
0.0163978
0.0163784
0.0163592
0.0163402
0.0163214
0.0163029
0.0162845
0.0162664
0.0162485
0.0162308
0.0162133
0.016196
0.0161789
0.016162
0.0161453
0.0161288
0.0161125
0.0160963
0.0160804
0.0160647
0.0160491
0.0160337
0.0160184
0.0160034
0.0159885
0.0159737
0.0159591
0.0159447
0.0159304
0.0159163
0.0159023
0.0158884
0.0158748
0.0158612
0.015848
0.0158348
0.0158219
0.0158091
0.0157966
0.0157841
0.015772
0.0157599
0.015748
0.0157361
0.0157245
0.0157127
0.0157012
0.0156894
0.0156779
0.0156661
0.0156544
0.0156425
0.0156307
0.0156186
0.0156066
0.0155943
0.0155822
0.0155698
0.0155575
0.0155449
0.0155323
0.0155193
0.0155065
0.0154935
0.0154809
0.0154682
0.015456
0.0154439
0.0154323
0.0154205
0.0154094
0.0153979
0.0153867
0.0153753
0.0153642
0.0153528
0.0153419
0.0153312
0.0153209
0.0153108
0.0153008
0.015291
0.0152816
0.015272
0.0152628
0.0152536
0.0152445
0.0152357
0.0152272
0.0152189
0.0152108
0.015203
0.0151953
0.0151878
0.0151805
0.0151734
0.0151662
0.0151591
0.0151523
0.0151453
0.0151389
0.0151314
0.0151256
0.0151176
0.015113
0.0151046
0.0151005
0.015092
0.015088
0.0150781
0.00382063
0.00375778
0.00369075
0.0037345
0.00395229
0.0044501
0.00519594
0.00620957
0.00733339
0.00859179
0.00977948
0.0109195
0.0119288
0.0128209
0.0135942
0.014281
0.014861
0.0153662
0.0157984
0.0161795
0.0165011
0.0167828
0.0170245
0.0172358
0.0174202
0.0175779
0.0177137
0.0178315
0.0179317
0.018019
0.0180932
0.0181564
0.0182096
0.0182549
0.0182921
0.0183233
0.0183487
0.018369
0.0183839
0.0183955
0.0184029
0.0184075
0.0184088
0.0184077
0.0184046
0.018399
0.0183916
0.0183826
0.0183721
0.0183605
0.0183476
0.018334
0.0183189
0.0183034
0.0182872
0.0182704
0.0182529
0.018235
0.0182167
0.0181981
0.0181791
0.0181599
0.0181404
0.0181207
0.0181008
0.018081
0.018061
0.0180409
0.0180208
0.0180007
0.0179806
0.0179605
0.0179404
0.0179204
0.0179004
0.0178806
0.0178608
0.0178411
0.0178215
0.017802
0.0177827
0.0177634
0.0177443
0.0177253
0.0177065
0.0176878
0.0176693
0.0176509
0.0176327
0.0176146
0.0175967
0.0175789
0.0175613
0.0175439
0.0175266
0.0175095
0.0174925
0.0174757
0.0174591
0.0174427
0.0174264
0.0174102
0.0173943
0.0173785
0.0173628
0.0173473
0.017332
0.0173168
0.0173018
0.0172869
0.0172722
0.0172576
0.0172432
0.0172289
0.0172148
0.0172008
0.0171869
0.0171732
0.0171595
0.017146
0.0171326
0.0171194
0.0171063
0.0170933
0.0170806
0.0170679
0.0170555
0.0170432
0.0170311
0.0170192
0.0170075
0.0169959
0.0169845
0.0169731
0.0169619
0.0169506
0.0169396
0.0169283
0.0169172
0.0169059
0.0168948
0.0168833
0.0168719
0.0168603
0.0168487
0.0168368
0.0168251
0.0168129
0.016801
0.0167886
0.0167763
0.0167634
0.0167508
0.0167379
0.0167254
0.0167127
0.0167006
0.0166884
0.0166767
0.016665
0.0166538
0.0166424
0.0166312
0.0166197
0.0166085
0.0165969
0.016586
0.0165751
0.0165647
0.0165544
0.0165443
0.0165345
0.0165249
0.0165152
0.0165059
0.0164966
0.0164874
0.0164785
0.0164698
0.0164615
0.0164532
0.0164454
0.0164376
0.0164301
0.0164227
0.0164156
0.0164083
0.0164014
0.0163944
0.0163876
0.016381
0.0163737
0.0163677
0.01636
0.0163551
0.016347
0.0163427
0.0163343
0.0163301
0.0163201
0.00384396
0.00383109
0.00376466
0.00367993
0.0036861
0.00376945
0.00398483
0.00442405
0.00502145
0.00584575
0.00679529
0.00785324
0.00892856
0.00997728
0.0109524
0.0118582
0.0126702
0.0133988
0.0140401
0.0146137
0.0151133
0.0155557
0.0159436
0.0162863
0.0165884
0.0168536
0.0170871
0.017294
0.0174755
0.0176375
0.0177795
0.0179053
0.0180161
0.0181144
0.0182005
0.0182771
0.0183439
0.0184032
0.0184543
0.0184997
0.0185385
0.0185722
0.0186011
0.0186254
0.0186461
0.018663
0.0186768
0.0186878
0.018696
0.0187021
0.0187059
0.0187079
0.0187078
0.0187065
0.0187037
0.0186996
0.0186942
0.0186878
0.0186804
0.0186722
0.0186632
0.0186534
0.0186429
0.0186319
0.0186203
0.0186083
0.0185959
0.0185831
0.0185699
0.0185565
0.0185427
0.0185288
0.0185146
0.0185003
0.0184858
0.0184712
0.0184564
0.0184416
0.0184267
0.0184118
0.0183968
0.0183818
0.0183667
0.0183517
0.0183367
0.0183217
0.0183067
0.0182917
0.0182768
0.018262
0.0182472
0.0182324
0.0182178
0.0182032
0.0181887
0.0181742
0.0181598
0.0181456
0.0181314
0.0181173
0.0181034
0.0180895
0.0180757
0.018062
0.0180484
0.0180349
0.0180215
0.0180083
0.0179951
0.017982
0.0179691
0.0179562
0.0179435
0.0179308
0.0179183
0.0179058
0.0178934
0.0178811
0.0178689
0.0178568
0.0178448
0.0178329
0.017821
0.0178093
0.0177978
0.0177863
0.017775
0.0177639
0.0177529
0.017742
0.0177314
0.0177209
0.0177106
0.0177002
0.0176901
0.0176799
0.0176699
0.0176597
0.0176497
0.0176394
0.0176293
0.0176188
0.0176084
0.0175977
0.0175871
0.017576
0.0175652
0.0175538
0.0175427
0.0175311
0.0175195
0.0175073
0.0174952
0.0174828
0.0174708
0.0174586
0.0174469
0.017435
0.0174237
0.0174123
0.0174015
0.0173903
0.0173795
0.0173682
0.0173572
0.0173459
0.0173351
0.0173244
0.0173141
0.017304
0.0172941
0.0172844
0.0172749
0.0172654
0.0172563
0.0172471
0.017238
0.0172292
0.0172207
0.0172125
0.0172043
0.0171966
0.0171889
0.0171816
0.0171743
0.0171675
0.0171603
0.0171537
0.0171468
0.0171403
0.0171337
0.0171268
0.0171207
0.0171135
0.0171086
0.0171009
0.0170966
0.0170885
0.0170843
0.0170746
0.00384401
0.00388399
0.00384174
0.00374988
0.00368661
0.00363991
0.00365564
0.00373527
0.00391525
0.0042547
0.00472743
0.00536229
0.00612735
0.00699791
0.00791542
0.00885361
0.00976596
0.0106368
0.0114428
0.0121889
0.0128635
0.0134751
0.0140242
0.0145183
0.0149617
0.0153583
0.0157132
0.0160327
0.0163179
0.0165755
0.0168051
0.017012
0.0171976
0.017365
0.0175151
0.0176511
0.0177726
0.0178826
0.017981
0.0180703
0.0181501
0.0182222
0.0182872
0.018345
0.0183974
0.0184441
0.018486
0.0185233
0.0185564
0.0185861
0.0186122
0.0186352
0.0186552
0.0186727
0.0186879
0.0187009
0.0187118
0.018721
0.0187284
0.0187343
0.0187386
0.0187417
0.0187436
0.0187442
0.0187439
0.0187427
0.0187406
0.0187377
0.018734
0.0187297
0.0187247
0.0187192
0.0187131
0.0187066
0.0186996
0.0186922
0.0186845
0.0186764
0.0186679
0.0186593
0.0186504
0.0186412
0.0186319
0.0186223
0.0186126
0.0186027
0.0185927
0.0185825
0.0185723
0.018562
0.0185516
0.0185411
0.0185305
0.0185199
0.0185093
0.0184986
0.0184879
0.0184772
0.0184665
0.0184558
0.0184451
0.0184344
0.0184238
0.0184131
0.0184025
0.0183919
0.0183813
0.0183707
0.0183602
0.0183497
0.0183393
0.0183289
0.0183186
0.0183083
0.018298
0.0182878
0.0182776
0.0182674
0.0182573
0.0182472
0.0182372
0.0182272
0.0182172
0.0182073
0.0181975
0.0181878
0.0181782
0.0181687
0.0181594
0.0181501
0.0181411
0.0181321
0.0181234
0.0181146
0.018106
0.0180974
0.0180889
0.0180802
0.0180717
0.0180629
0.0180542
0.0180451
0.0180362
0.0180268
0.0180175
0.0180078
0.0179982
0.017988
0.0179781
0.0179676
0.017957
0.0179458
0.0179347
0.0179231
0.0179119
0.0179004
0.0178894
0.0178782
0.0178675
0.0178566
0.0178464
0.0178358
0.0178255
0.0178147
0.0178042
0.0177932
0.0177829
0.0177725
0.0177626
0.0177528
0.0177433
0.0177339
0.0177247
0.0177155
0.0177067
0.0176978
0.0176889
0.0176805
0.0176722
0.0176643
0.0176563
0.0176489
0.0176415
0.0176345
0.0176275
0.017621
0.0176141
0.0176078
0.0176011
0.0175951
0.0175887
0.0175822
0.0175763
0.0175696
0.0175648
0.0175576
0.0175535
0.0175459
0.0175417
0.0175327
0.00383058
0.00390649
0.00388325
0.00382036
0.00374803
0.00367334
0.00362242
0.00359141
0.00360446
0.0036641
0.00380031
0.0040475
0.00439843
0.00487561
0.00546165
0.00615089
0.00690929
0.0077134
0.0085255
0.00932894
0.0100993
0.0108289
0.0115087
0.0121383
0.0127175
0.0132477
0.0137305
0.0141719
0.0145722
0.0149383
0.0152697
0.0155717
0.0158462
0.0160964
0.0163239
0.0165322
0.0167209
0.0168939
0.0170512
0.0171956
0.0173271
0.0174477
0.0175582
0.0176588
0.0177513
0.0178358
0.0179134
0.0179843
0.0180492
0.0181089
0.0181633
0.0182132
0.0182587
0.0183003
0.0183384
0.0183732
0.0184047
0.0184336
0.0184598
0.0184835
0.018505
0.0185244
0.0185418
0.0185574
0.0185713
0.0185838
0.0185949
0.0186046
0.018613
0.0186203
0.0186265
0.0186317
0.018636
0.0186394
0.018642
0.0186439
0.0186451
0.0186456
0.0186455
0.0186449
0.0186437
0.0186421
0.01864
0.0186374
0.0186345
0.0186312
0.0186276
0.0186236
0.0186194
0.0186149
0.0186101
0.0186051
0.0185998
0.0185944
0.0185888
0.018583
0.018577
0.0185709
0.0185647
0.0185584
0.0185519
0.0185453
0.0185387
0.0185319
0.0185251
0.0185182
0.0185112
0.0185042
0.0184971
0.01849
0.0184829
0.0184757
0.0184684
0.0184612
0.0184539
0.0184465
0.0184392
0.0184318
0.0184244
0.0184169
0.0184094
0.0184019
0.0183944
0.0183869
0.0183795
0.018372
0.0183647
0.0183573
0.0183501
0.018343
0.018336
0.018329
0.0183223
0.0183155
0.0183089
0.0183022
0.0182957
0.0182889
0.0182823
0.0182753
0.0182685
0.0182613
0.0182541
0.0182465
0.0182389
0.0182307
0.0182228
0.0182141
0.0182057
0.0181966
0.0181875
0.0181775
0.0181676
0.0181571
0.018147
0.0181365
0.0181264
0.0181161
0.0181063
0.0180962
0.0180867
0.0180768
0.0180673
0.0180572
0.0180473
0.018037
0.0180272
0.0180174
0.018008
0.0179987
0.0179896
0.0179808
0.017972
0.0179632
0.0179549
0.0179464
0.017938
0.01793
0.017922
0.0179145
0.0179069
0.0178999
0.0178927
0.0178861
0.0178796
0.0178735
0.017867
0.0178611
0.0178548
0.0178492
0.0178432
0.0178372
0.0178315
0.0178254
0.0178209
0.0178143
0.0178103
0.0178034
0.0177994
0.0177914
0.00381067
0.00390555
0.00389799
0.00386148
0.00380191
0.00373319
0.0036692
0.00360859
0.00356653
0.00353702
0.0035442
0.00358247
0.00367372
0.00384681
0.00409413
0.00443555
0.00486836
0.00539242
0.00599034
0.0066477
0.00733946
0.00804679
0.00874966
0.00943491
0.0100921
0.0107163
0.0113013
0.0118491
0.0123567
0.0128286
0.0132637
0.0136654
0.0140354
0.0143765
0.0146902
0.0149803
0.0152461
0.0154919
0.0157179
0.0159269
0.0161193
0.0162973
0.016462
0.0166135
0.0167542
0.0168842
0.0170048
0.0171163
0.0172197
0.0173158
0.0174047
0.0174873
0.0175639
0.0176351
0.0177013
0.0177627
0.0178198
0.0178729
0.0179222
0.017968
0.0180105
0.0180501
0.0180868
0.018121
0.0181526
0.018182
0.0182094
0.0182347
0.0182581
0.0182798
0.0182998
0.0183183
0.0183354
0.0183512
0.0183657
0.018379
0.0183912
0.0184024
0.0184126
0.0184219
0.0184303
0.0184379
0.0184448
0.0184509
0.0184563
0.0184612
0.0184654
0.018469
0.0184722
0.0184748
0.018477
0.0184787
0.01848
0.0184809
0.0184815
0.0184816
0.0184815
0.0184811
0.0184804
0.0184794
0.0184782
0.0184767
0.018475
0.018473
0.0184709
0.0184686
0.0184661
0.0184634
0.0184606
0.0184576
0.0184544
0.0184512
0.0184478
0.0184443
0.0184407
0.0184369
0.018433
0.018429
0.0184249
0.0184208
0.0184164
0.018412
0.0184075
0.018403
0.0183984
0.0183938
0.0183891
0.0183845
0.01838
0.0183754
0.0183709
0.0183665
0.0183622
0.0183578
0.0183536
0.0183493
0.0183451
0.0183406
0.0183363
0.0183316
0.0183271
0.018322
0.018317
0.0183115
0.0183059
0.0182997
0.0182938
0.0182869
0.0182803
0.0182729
0.0182655
0.0182571
0.0182487
0.0182396
0.0182308
0.0182216
0.0182128
0.0182035
0.0181948
0.0181856
0.0181771
0.0181681
0.0181596
0.0181504
0.0181414
0.0181318
0.0181228
0.0181137
0.0181049
0.0180963
0.0180878
0.0180796
0.0180714
0.0180632
0.0180555
0.0180475
0.0180397
0.0180323
0.0180248
0.0180177
0.0180106
0.018004
0.0179973
0.0179912
0.0179852
0.0179795
0.0179736
0.0179682
0.0179624
0.0179573
0.0179517
0.0179463
0.017941
0.0179356
0.0179314
0.0179255
0.0179217
0.0179156
0.0179116
0.017905
0.00379118
0.00388824
0.00389569
0.00387647
0.00383421
0.00377761
0.00372036
0.0036588
0.00360391
0.00355037
0.00351391
0.00348273
0.00348296
0.00350327
0.00355779
0.00366931
0.00383653
0.00407006
0.00437573
0.00475567
0.00520468
0.00571581
0.00627468
0.00686718
0.00747677
0.0080922
0.0086987
0.00929087
0.00985919
0.0104028
0.0109173
0.0114025
0.0118575
0.012284
0.0126817
0.0130539
0.0133996
0.0137222
0.0140218
0.0143013
0.014561
0.014803
0.0150287
0.0152383
0.015434
0.0156163
0.0157866
0.0159453
0.0160937
0.0162324
0.0163618
0.016483
0.0165964
0.0167025
0.016802
0.0168952
0.0169825
0.0170646
0.0171414
0.0172136
0.0172813
0.017345
0.0174048
0.0174611
0.0175139
0.0175636
0.0176104
0.0176544
0.0176958
0.0177348
0.0177714
0.017806
0.0178384
0.017869
0.0178978
0.0179249
0.0179504
0.0179744
0.0179969
0.0180182
0.0180381
0.0180569
0.0180745
0.0180911
0.0181067
0.0181213
0.018135
0.0181478
0.0181599
0.0181712
0.0181817
0.0181916
0.0182008
0.0182094
0.0182173
0.0182248
0.0182317
0.0182381
0.0182441
0.0182495
0.0182546
0.0182592
0.0182635
0.0182674
0.0182709
0.0182741
0.0182769
0.0182795
0.0182818
0.0182838
0.0182855
0.018287
0.0182882
0.0182892
0.01829
0.0182905
0.0182908
0.018291
0.0182909
0.0182906
0.0182901
0.0182894
0.0182885
0.0182875
0.0182864
0.0182851
0.0182838
0.0182824
0.018281
0.0182795
0.0182781
0.0182766
0.0182752
0.0182738
0.0182724
0.0182709
0.0182695
0.0182678
0.0182661
0.0182641
0.0182622
0.0182597
0.0182572
0.0182541
0.018251
0.0182471
0.0182434
0.0182388
0.0182343
0.0182289
0.0182236
0.0182171
0.0182106
0.0182031
0.0181959
0.0181883
0.018181
0.018173
0.0181656
0.0181576
0.0181503
0.0181424
0.018135
0.0181269
0.018119
0.0181104
0.0181024
0.018094
0.0180862
0.0180782
0.0180706
0.0180632
0.0180556
0.0180482
0.0180412
0.0180338
0.0180268
0.01802
0.0180132
0.0180067
0.018
0.0179941
0.0179879
0.0179825
0.017977
0.0179718
0.0179665
0.0179617
0.0179565
0.0179519
0.0179469
0.0179421
0.0179373
0.0179327
0.0179289
0.0179237
0.0179203
0.0179151
0.0179111
0.0179061
0.00377572
0.0038595
0.00388214
0.00387264
0.00384672
0.00380346
0.00375605
0.00370201
0.00365013
0.00359465
0.00354627
0.00349822
0.00346292
0.00343527
0.00342199
0.00343072
0.00345975
0.00352389
0.00363129
0.00378316
0.00398772
0.00425039
0.00457029
0.00494695
0.00537297
0.00584281
0.00634303
0.00686587
0.00739798
0.00793261
0.00846056
0.00897694
0.00947608
0.00995638
0.0104144
0.0108511
0.0112642
0.0116551
0.0120233
0.0123704
0.0126968
0.0130035
0.0132922
0.0135628
0.0138172
0.0140559
0.0142805
0.0144911
0.0146893
0.0148756
0.0150506
0.0152154
0.0153705
0.0155164
0.015654
0.0157837
0.0159059
0.0160214
0.0161302
0.016233
0.01633
0.0164218
0.0165085
0.0165906
0.0166683
0.0167418
0.0168115
0.0168774
0.0169399
0.0169992
0.0170554
0.0171088
0.0171594
0.0172074
0.017253
0.0172964
0.0173375
0.0173767
0.0174138
0.0174492
0.0174828
0.0175148
0.0175451
0.0175741
0.0176016
0.0176278
0.0176527
0.0176764
0.017699
0.0177204
0.0177409
0.0177604
0.0177789
0.0177966
0.0178133
0.0178294
0.0178446
0.0178591
0.0178729
0.017886
0.0178985
0.0179104
0.0179217
0.0179324
0.0179426
0.0179523
0.0179615
0.0179703
0.0179786
0.0179865
0.0179939
0.018001
0.0180077
0.018014
0.01802
0.0180256
0.0180309
0.0180359
0.0180405
0.0180448
0.0180488
0.0180525
0.018056
0.0180591
0.0180621
0.0180649
0.0180675
0.0180699
0.0180722
0.0180743
0.0180765
0.0180785
0.0180806
0.0180825
0.0180845
0.0180863
0.0180881
0.0180896
0.0180911
0.0180922
0.0180933
0.0180937
0.0180942
0.018094
0.0180937
0.0180925
0.0180915
0.0180894
0.0180874
0.0180844
0.0180815
0.0180773
0.018073
0.0180674
0.0180623
0.0180564
0.0180509
0.0180446
0.0180388
0.0180322
0.0180263
0.0180198
0.0180138
0.018007
0.0180005
0.017993
0.0179861
0.0179788
0.017972
0.017965
0.0179584
0.0179518
0.017945
0.0179386
0.0179325
0.0179258
0.0179197
0.0179138
0.0179076
0.0179018
0.0178958
0.0178906
0.017885
0.0178803
0.0178756
0.0178709
0.0178665
0.0178623
0.0178577
0.0178537
0.0178494
0.0178453
0.017841
0.0178373
0.0178341
0.0178296
0.0178268
0.0178224
0.0178187
0.0178155
0.00376521
0.00382737
0.00385897
0.00385674
0.00384319
0.0038133
0.00377567
0.00373068
0.00368522
0.0036354
0.00358784
0.00353896
0.00349335
0.00345224
0.00341581
0.00338957
0.00336806
0.00336758
0.00337898
0.00340956
0.00347194
0.00356659
0.00369583
0.00386776
0.00408341
0.00434591
0.00465239
0.00500238
0.00538854
0.00580609
0.00624627
0.0067027
0.0071666
0.00763292
0.00809474
0.00854923
0.00899157
0.00942031
0.00983292
0.0102288
0.0106075
0.0109681
0.0113119
0.0116379
0.0119476
0.0122408
0.0125189
0.0127819
0.0130311
0.0132669
0.0134901
0.0137012
0.0139011
0.0140903
0.0142695
0.0144392
0.0146
0.0147526
0.014897
0.0150342
0.0151642
0.0152877
0.015405
0.0155164
0.0156223
0.015723
0.0158189
0.01591
0.0159968
0.0160794
0.0161581
0.0162332
0.0163047
0.0163729
0.016438
0.0165002
0.0165595
0.0166162
0.0166703
0.016722
0.0167715
0.0168188
0.016864
0.0169073
0.0169487
0.0169884
0.0170263
0.0170627
0.0170975
0.0171309
0.0171629
0.0171936
0.017223
0.0172513
0.0172783
0.0173043
0.0173292
0.0173531
0.0173761
0.0173982
0.0174193
0.0174397
0.0174592
0.017478
0.017496
0.0175133
0.0175299
0.0175459
0.0175612
0.017576
0.0175901
0.0176037
0.0176168
0.0176293
0.0176414
0.0176529
0.017664
0.0176746
0.0176848
0.0176945
0.0177038
0.0177126
0.0177211
0.0177291
0.0177369
0.0177443
0.0177514
0.0177583
0.017765
0.0177714
0.0177777
0.0177839
0.0177899
0.0177958
0.0178016
0.0178072
0.0178127
0.0178179
0.017823
0.0178276
0.0178322
0.0178361
0.0178399
0.017843
0.0178459
0.0178479
0.01785
0.0178508
0.0178519
0.0178514
0.0178516
0.0178499
0.0178481
0.0178448
0.0178421
0.0178383
0.0178351
0.0178308
0.0178269
0.017822
0.0178178
0.0178128
0.0178086
0.0178033
0.0177983
0.0177923
0.0177869
0.0177807
0.0177752
0.0177693
0.0177639
0.0177583
0.0177526
0.0177473
0.0177423
0.0177365
0.0177316
0.0177265
0.0177212
0.0177161
0.017711
0.0177065
0.0177018
0.017698
0.0176941
0.0176899
0.0176866
0.017683
0.0176791
0.0176758
0.0176723
0.0176689
0.0176654
0.0176628
0.0176601
0.0176564
0.0176545
0.0176508
0.0176476
0.0176462
0.0037587
0.00379754
0.00382985
0.00383368
0.00382764
0.00380976
0.00378129
0.00374522
0.00370687
0.00366419
0.00362111
0.00357653
0.00353167
0.00348905
0.00344607
0.00340878
0.00337325
0.00334538
0.00332452
0.00330955
0.00331135
0.00332337
0.00335165
0.0034057
0.00348331
0.00358881
0.00372591
0.00389851
0.00410619
0.00435073
0.00462995
0.00494241
0.00528291
0.00564782
0.00603076
0.00642729
0.0068313
0.00723863
0.00764474
0.00804615
0.00844063
0.00882503
0.00919893
0.00956007
0.00990854
0.0102432
0.0105646
0.0108721
0.0111663
0.0114472
0.0117154
0.011971
0.0122149
0.0124471
0.0126685
0.0128793
0.0130801
0.0132716
0.0134538
0.0136275
0.013793
0.0139509
0.0141013
0.0142448
0.0143818
0.0145124
0.0146373
0.0147564
0.0148702
0.0149789
0.0150829
0.0151823
0.0152774
0.0153685
0.0154556
0.0155391
0.015619
0.0156956
0.015769
0.0158394
0.0159069
0.0159718
0.0160339
0.0160937
0.016151
0.0162061
0.016259
0.01631
0.0163589
0.016406
0.0164512
0.0164948
0.0165367
0.0165771
0.016616
0.0166535
0.0166896
0.0167244
0.0167579
0.0167902
0.0168214
0.0168515
0.0168805
0.0169085
0.0169356
0.0169616
0.0169868
0.0170111
0.0170346
0.0170573
0.0170792
0.0171003
0.0171207
0.0171405
0.0171595
0.0171779
0.0171957
0.0172128
0.0172293
0.0172453
0.0172607
0.0172754
0.0172897
0.0173034
0.0173168
0.0173296
0.017342
0.017354
0.0173658
0.0173771
0.0173882
0.0173991
0.0174098
0.0174201
0.0174304
0.0174403
0.0174501
0.0174595
0.0174687
0.0174774
0.017486
0.0174938
0.0175015
0.0175083
0.0175149
0.0175205
0.0175261
0.0175303
0.0175346
0.0175375
0.0175407
0.0175422
0.0175439
0.0175433
0.0175433
0.0175417
0.0175412
0.0175392
0.0175377
0.0175348
0.0175327
0.0175295
0.0175273
0.0175237
0.0175209
0.0175166
0.0175128
0.0175081
0.0175042
0.0174996
0.0174956
0.0174912
0.0174867
0.0174829
0.0174789
0.0174743
0.0174708
0.0174667
0.0174624
0.0174583
0.017454
0.0174505
0.0174468
0.0174441
0.017441
0.0174376
0.0174355
0.0174325
0.0174295
0.0174269
0.0174244
0.0174218
0.0174192
0.0174178
0.0174156
0.0174129
0.0174121
0.0174091
0.0174072
0.0174069
0.00375413
0.00377374
0.0037992
0.0038068
0.00380455
0.00379518
0.0037756
0.0037475
0.00371606
0.00368046
0.00364298
0.00360383
0.00356301
0.00352293
0.00348153
0.00344246
0.00340354
0.00336711
0.00333511
0.00330543
0.00328195
0.00326447
0.00325281
0.00325454
0.00326444
0.00328734
0.00332966
0.00339084
0.0034721
0.00357826
0.00371058
0.00387121
0.00406014
0.00427818
0.00452384
0.00479562
0.00509038
0.00540491
0.00573555
0.00607791
0.00642903
0.00678417
0.00714125
0.00749648
0.00784826
0.00819402
0.00853279
0.00886285
0.00918375
0.00949458
0.00979519
0.0100851
0.0103645
0.0106332
0.0108914
0.0111394
0.0113772
0.0116055
0.0118241
0.0120338
0.0122346
0.012427
0.0126113
0.0127879
0.0129571
0.0131192
0.0132746
0.0134235
0.0135662
0.013703
0.0138343
0.0139602
0.014081
0.014197
0.0143083
0.0144152
0.0145179
0.0146166
0.0147114
0.0148026
0.0148903
0.0149747
0.0150559
0.015134
0.0152092
0.0152817
0.0153515
0.0154188
0.0154836
0.0155461
0.0156064
0.0156646
0.0157207
0.0157749
0.0158272
0.0158777
0.0159265
0.0159737
0.0160192
0.0160633
0.0161059
0.0161471
0.0161869
0.0162255
0.0162627
0.0162989
0.0163338
0.0163676
0.0164004
0.0164321
0.0164628
0.0164926
0.0165215
0.0165494
0.0165765
0.0166027
0.0166281
0.0166527
0.0166766
0.0166997
0.016722
0.0167436
0.0167646
0.0167848
0.0168044
0.0168235
0.016842
0.0168599
0.0168774
0.0168944
0.0169111
0.0169273
0.0169433
0.0169588
0.0169742
0.016989
0.0170037
0.0170179
0.0170318
0.0170452
0.0170582
0.0170705
0.0170825
0.0170936
0.0171045
0.0171142
0.0171238
0.0171319
0.0171399
0.0171466
0.0171534
0.0171585
0.0171633
0.0171662
0.0171693
0.017171
0.0171733
0.0171743
0.0171761
0.0171758
0.0171759
0.0171746
0.0171751
0.0171731
0.017173
0.0171706
0.0171686
0.0171658
0.0171637
0.0171607
0.0171584
0.0171553
0.0171524
0.0171503
0.0171475
0.0171445
0.0171427
0.0171398
0.0171367
0.0171336
0.0171305
0.0171279
0.0171255
0.0171241
0.0171218
0.0171195
0.0171191
0.0171164
0.0171143
0.0171125
0.0171111
0.0171094
0.0171081
0.0171081
0.0171062
0.0171048
0.0171052
0.0171026
0.0171023
0.0171033
0.00375061
0.00375654
0.00377091
0.0037785
0.00377798
0.00377303
0.00376074
0.00373981
0.00371456
0.00368543
0.00365369
0.00362002
0.00358418
0.00354804
0.00351038
0.00347315
0.00343584
0.00339877
0.00336376
0.00332935
0.00329757
0.00326952
0.00324372
0.00322299
0.00320774
0.00319647
0.00319694
0.00320337
0.00321916
0.00325014
0.00329509
0.00335572
0.003434
0.0035325
0.00365232
0.00379449
0.00395961
0.00414764
0.00435832
0.00458973
0.00484093
0.00510861
0.00539112
0.00568486
0.00598771
0.00629637
0.0066088
0.0069222
0.00723498
0.00754502
0.00785119
0.00815208
0.00844686
0.00873467
0.00901502
0.00928755
0.00955181
0.00980797
0.0100557
0.0102951
0.0105262
0.0107493
0.0109643
0.0111715
0.0113712
0.0115634
0.0117486
0.0119269
0.0120985
0.0122638
0.0124228
0.0125759
0.0127234
0.0128654
0.0130021
0.0131338
0.0132607
0.0133829
0.0135007
0.0136143
0.0137237
0.0138293
0.0139311
0.0140294
0.0141242
0.0142157
0.014304
0.0143894
0.0144717
0.0145514
0.0146283
0.0147027
0.0147746
0.0148441
0.0149114