/*--------------------------------*- C++ -*----------------------------------*\
  =========                 |
  \\      /  F ield         | OpenFOAM: The Open Source CFD Toolbox
   \\    /   O peration     | Website:  https://openfoam.org
    \\  /    A nd           | Version:  12
     \\/     M anipulation  |
\*---------------------------------------------------------------------------*/
FoamFile
{
    format      ascii;
    class       volScalarField;
    location    "400";
    object      nut;
}
// * * * * * * * * * * * * * * * * * * * * * * * * * * * * * * * * * * * * * //

dimensions      [0 2 -1 0 0 0 0];

internalField   nonuniform List<scalar> 
20000
(
1.76054e-06
6.61329e-07
7.32548e-07
9.77623e-07
1.13847e-06
1.26664e-06
1.39367e-06
1.52819e-06
1.63982e-06
1.74263e-06
1.81171e-06
1.88678e-06
1.93492e-06
1.98301e-06
2.02389e-06
2.0613e-06
2.08976e-06
2.11444e-06
2.13406e-06
2.15188e-06
2.16527e-06
2.17651e-06
2.18534e-06
2.19237e-06
2.19827e-06
2.20212e-06
2.20494e-06
2.20664e-06
2.2071e-06
2.20686e-06
2.20613e-06
2.20456e-06
2.20235e-06
2.19981e-06
2.19674e-06
2.19337e-06
2.18983e-06
2.18598e-06
2.18175e-06
2.17751e-06
2.17296e-06
2.16838e-06
2.16361e-06
2.15877e-06
2.15388e-06
2.14891e-06
2.14384e-06
2.13879e-06
2.13364e-06
2.12856e-06
2.12343e-06
2.11835e-06
2.11319e-06
2.10809e-06
2.10302e-06
2.09797e-06
2.09294e-06
2.08794e-06
2.08298e-06
2.07806e-06
2.07317e-06
2.06832e-06
2.06351e-06
2.05876e-06
2.05402e-06
2.04936e-06
2.04473e-06
2.04017e-06
2.03564e-06
2.03117e-06
2.02674e-06
2.02236e-06
2.01804e-06
2.01376e-06
2.00954e-06
2.00536e-06
2.00123e-06
1.99716e-06
1.99314e-06
1.98916e-06
1.98524e-06
1.98136e-06
1.97753e-06
1.97374e-06
1.97002e-06
1.96632e-06
1.96269e-06
1.95909e-06
1.95555e-06
1.95204e-06
1.94859e-06
1.94517e-06
1.94181e-06
1.93847e-06
1.93519e-06
1.93195e-06
1.92875e-06
1.92559e-06
1.92247e-06
1.91939e-06
1.91635e-06
1.91335e-06
1.91038e-06
1.90746e-06
1.90457e-06
1.90172e-06
1.8989e-06
1.89612e-06
1.89337e-06
1.89066e-06
1.88797e-06
1.88533e-06
1.88271e-06
1.88012e-06
1.87756e-06
1.87504e-06
1.87253e-06
1.87006e-06
1.86762e-06
1.8652e-06
1.86281e-06
1.86045e-06
1.85812e-06
1.85582e-06
1.85356e-06
1.85132e-06
1.84913e-06
1.84695e-06
1.84483e-06
1.84271e-06
1.84066e-06
1.8386e-06
1.83659e-06
1.83456e-06
1.83258e-06
1.83058e-06
1.82861e-06
1.82659e-06
1.82462e-06
1.82259e-06
1.8206e-06
1.81854e-06
1.81652e-06
1.81443e-06
1.81238e-06
1.81026e-06
1.80819e-06
1.80605e-06
1.80394e-06
1.80176e-06
1.7996e-06
1.79738e-06
1.79521e-06
1.793e-06
1.79086e-06
1.7887e-06
1.78664e-06
1.78458e-06
1.78263e-06
1.78064e-06
1.77876e-06
1.77682e-06
1.77493e-06
1.773e-06
1.77114e-06
1.76922e-06
1.7674e-06
1.7656e-06
1.76388e-06
1.76218e-06
1.76052e-06
1.75888e-06
1.7573e-06
1.75569e-06
1.75416e-06
1.75262e-06
1.7511e-06
1.74963e-06
1.74821e-06
1.74682e-06
1.74547e-06
1.74415e-06
1.74289e-06
1.7416e-06
1.7404e-06
1.73917e-06
1.73799e-06
1.73675e-06
1.73565e-06
1.73439e-06
1.73338e-06
1.73201e-06
1.73114e-06
1.72966e-06
1.72898e-06
1.72748e-06
1.72688e-06
1.72539e-06
1.72498e-06
1.72319e-06
3.0855e-05
2.66405e-05
2.94446e-05
3.91731e-05
4.6998e-05
5.46652e-05
6.26714e-05
7.1025e-05
7.83366e-05
8.5181e-05
9.04078e-05
9.59432e-05
9.99195e-05
0.000103961
0.000107527
0.000110817
0.000113589
0.000116099
0.000118295
0.000120331
0.000122081
0.000123667
0.000125078
0.000126351
0.000127515
0.00012853
0.000129456
0.000130285
0.000131016
0.000131677
0.000132283
0.000132815
0.000133289
0.000133719
0.000134098
0.000134439
0.000134752
0.000135025
0.000135262
0.000135478
0.000135663
0.000135831
0.000135972
0.000136097
0.000136205
0.000136295
0.000136368
0.000136431
0.000136478
0.000136517
0.000136544
0.000136563
0.00013657
0.000136571
0.000136565
0.000136552
0.000136532
0.000136506
0.000136476
0.000136441
0.000136402
0.000136358
0.00013631
0.00013626
0.000136204
0.000136148
0.000136088
0.000136027
0.000135963
0.000135897
0.000135829
0.00013576
0.000135689
0.000135617
0.000135544
0.00013547
0.000135395
0.00013532
0.000135243
0.000135166
0.000135089
0.00013501
0.000134933
0.000134854
0.000134775
0.000134696
0.000134617
0.000134538
0.000134459
0.00013438
0.000134301
0.000134222
0.000134144
0.000134065
0.000133988
0.00013391
0.000133832
0.000133755
0.000133678
0.000133601
0.000133525
0.000133449
0.000133374
0.000133299
0.000133225
0.00013315
0.000133077
0.000133004
0.000132931
0.000132858
0.000132786
0.000132715
0.000132644
0.000132573
0.000132503
0.000132433
0.000132363
0.000132295
0.000132226
0.000132157
0.000132089
0.000132022
0.000131955
0.000131888
0.000131823
0.000131758
0.000131695
0.000131632
0.00013157
0.000131508
0.000131448
0.000131388
0.000131329
0.000131269
0.000131211
0.000131151
0.000131092
0.000131031
0.000130971
0.000130908
0.000130847
0.000130781
0.000130717
0.00013065
0.000130583
0.000130512
0.000130443
0.00013037
0.000130299
0.000130223
0.000130146
0.000130067
0.000129988
0.000129907
0.000129829
0.00012975
0.000129675
0.000129599
0.000129527
0.000129454
0.000129385
0.000129312
0.000129241
0.000129168
0.000129096
0.000129022
0.000128952
0.000128883
0.000128817
0.000128752
0.000128688
0.000128625
0.000128564
0.000128502
0.000128442
0.000128383
0.000128323
0.000128267
0.000128211
0.000128159
0.000128106
0.000128057
0.000128008
0.00012796
0.000127913
0.000127868
0.000127822
0.000127776
0.000127733
0.000127687
0.000127648
0.000127596
0.000127563
0.000127504
0.000127483
0.000127423
0.000127406
0.000127346
0.000127338
0.00012725
0.000184607
6.36389e-05
4.743e-05
5.26722e-05
6.47052e-05
8.11588e-05
9.89868e-05
0.000117447
0.000134263
0.000150394
0.000163997
0.000177863
0.000189171
0.000200386
0.000210633
0.000220251
0.000228698
0.000236587
0.00024373
0.000250431
0.000256425
0.000262001
0.000267111
0.000271851
0.000276263
0.000280296
0.00028403
0.000287499
0.000290692
0.00029367
0.000296465
0.000299036
0.000301425
0.000303667
0.000305747
0.000307695
0.00030954
0.000311251
0.000312844
0.000314354
0.000315759
0.000317088
0.000318329
0.000319499
0.000320607
0.000321642
0.000322616
0.000323539
0.000324403
0.000325226
0.000326
0.000326735
0.000327421
0.000328076
0.000328696
0.000329283
0.000329837
0.000330362
0.000330861
0.000331333
0.000331781
0.000332205
0.000332607
0.00033299
0.00033335
0.000333695
0.000334021
0.000334333
0.000334627
0.000334908
0.000335173
0.000335426
0.000335665
0.000335894
0.000336111
0.000336317
0.000336513
0.0003367
0.000336877
0.000337045
0.000337205
0.000337357
0.000337502
0.000337639
0.00033777
0.000337894
0.000338012
0.000338124
0.000338231
0.000338331
0.000338428
0.000338518
0.000338605
0.000338686
0.000338764
0.000338837
0.000338906
0.000338972
0.000339035
0.000339093
0.000339149
0.000339201
0.000339251
0.000339298
0.000339341
0.000339383
0.000339421
0.000339457
0.000339491
0.000339523
0.000339552
0.000339579
0.000339604
0.000339627
0.000339648
0.000339666
0.000339683
0.000339698
0.000339711
0.000339722
0.000339731
0.000339739
0.000339745
0.000339751
0.000339757
0.00033976
0.000339765
0.000339768
0.000339772
0.000339774
0.000339779
0.000339781
0.000339785
0.000339784
0.000339786
0.000339782
0.00033978
0.000339771
0.000339763
0.000339748
0.000339733
0.00033971
0.000339687
0.000339656
0.000339624
0.000339583
0.000339544
0.000339494
0.000339444
0.000339384
0.000339321
0.000339247
0.000339174
0.000339093
0.000339017
0.000338937
0.000338862
0.000338786
0.000338717
0.000338642
0.000338573
0.000338496
0.00033842
0.000338335
0.000338253
0.000338162
0.000338081
0.000338001
0.000337925
0.00033785
0.000337776
0.000337704
0.000337634
0.00033756
0.000337491
0.000337421
0.000337347
0.000337282
0.000337217
0.00033716
0.000337097
0.000337046
0.00033699
0.000336941
0.000336887
0.000336846
0.000336788
0.000336747
0.000336692
0.000336653
0.000336601
0.000336551
0.000336508
0.000336448
0.000336431
0.00033636
0.000336353
0.000336284
0.000336283
0.000336174
0.000741323
0.000184417
0.000105279
7.55242e-05
7.64252e-05
8.81022e-05
0.000104056
0.000124333
0.000145385
0.000167337
0.000187666
0.000208492
0.000227427
0.000245877
0.00026321
0.00027964
0.000294307
0.000308327
0.000321209
0.000333399
0.00034445
0.000354886
0.000364548
0.00037362
0.000382128
0.000390011
0.000397387
0.000404311
0.000410769
0.000416861
0.000422573
0.000427929
0.000432965
0.000437723
0.000442187
0.000446411
0.000450437
0.000454208
0.000457768
0.000461163
0.000464362
0.000467411
0.000470292
0.000473035
0.000475652
0.000478128
0.000480483
0.000482733
0.00048487
0.000486919
0.000488869
0.000490738
0.000492508
0.000494213
0.000495845
0.000497405
0.000498897
0.000500328
0.000501702
0.000503019
0.000504283
0.000505495
0.00050666
0.00050778
0.000508852
0.00050989
0.000510886
0.000511846
0.000512769
0.000513659
0.000514516
0.000515343
0.000516139
0.000516908
0.000517651
0.000518368
0.00051906
0.00051973
0.000520376
0.000521002
0.000521607
0.000522192
0.000522759
0.000523306
0.000523837
0.000524351
0.00052485
0.000525332
0.000525801
0.000526254
0.000526695
0.000527121
0.000527536
0.000527937
0.000528328
0.000528707
0.000529075
0.000529433
0.000529781
0.000530119
0.000530447
0.000530766
0.000531077
0.000531379
0.000531673
0.000531959
0.000532237
0.000532508
0.00053277
0.000533027
0.000533276
0.000533519
0.000533754
0.000533985
0.000534207
0.000534424
0.000534634
0.000534839
0.000535037
0.000535231
0.000535417
0.0005356
0.000535777
0.00053595
0.000536121
0.000536286
0.00053645
0.00053661
0.000536768
0.000536923
0.000537078
0.000537228
0.000537378
0.000537521
0.000537665
0.000537799
0.000537933
0.000538055
0.000538177
0.000538287
0.000538394
0.000538487
0.000538579
0.000538654
0.000538727
0.000538784
0.00053884
0.000538877
0.000538913
0.000538929
0.000538937
0.000538926
0.000538913
0.000538886
0.000538863
0.000538832
0.000538808
0.000538778
0.000538757
0.000538726
0.000538702
0.000538662
0.000538623
0.000538567
0.000538513
0.000538443
0.000538387
0.000538331
0.00053828
0.000538231
0.00053818
0.000538133
0.000538085
0.000538031
0.000537983
0.000537933
0.000537875
0.00053783
0.000537784
0.00053775
0.000537706
0.00053768
0.000537643
0.00053762
0.000537586
0.000537574
0.000537531
0.000537519
0.000537476
0.000537469
0.000537428
0.000537405
0.000537373
0.000537337
0.000537341
0.000537292
0.000537311
0.00053726
0.000537285
0.000537219
0.00150224
0.000491297
0.000263239
0.000158032
0.000116021
0.000103208
0.000105626
0.00011759
0.000134636
0.000157061
0.000180589
0.000205638
0.000230091
0.000253965
0.000276854
0.000299137
0.000319787
0.000339555
0.000358184
0.000375997
0.000392291
0.000408017
0.000422675
0.00043663
0.000449775
0.000462052
0.000473656
0.000484614
0.000494913
0.000504702
0.000513895
0.000522597
0.000530835
0.000538653
0.000546046
0.000553082
0.000559765
0.000566114
0.000572133
0.000577894
0.000583354
0.000588579
0.000593542
0.000598293
0.000602843
0.000607166
0.000611305
0.000615272
0.000619061
0.000622707
0.000626192
0.000629546
0.000632741
0.000635833
0.000638801
0.00064165
0.00064439
0.000647029
0.000649571
0.000652019
0.000654378
0.000656651
0.000658845
0.000660962
0.000663
0.000664978
0.000666884
0.00066873
0.000670512
0.000672237
0.000673905
0.000675522
0.000677086
0.000678602
0.000680072
0.000681496
0.000682878
0.00068422
0.000685519
0.000686783
0.000688011
0.000689201
0.00069036
0.000691484
0.000692578
0.000693642
0.000694678
0.000695684
0.000696665
0.000697619
0.000698548
0.000699453
0.000700335
0.000701193
0.000702031
0.000702847
0.000703643
0.000704419
0.000705178
0.000705917
0.000706639
0.000707342
0.00070803
0.000708701
0.000709357
0.000709997
0.000710622
0.000711234
0.00071183
0.000712414
0.000712983
0.000713541
0.000714085
0.000714617
0.000715136
0.000715643
0.000716138
0.000716623
0.000717094
0.000717556
0.000718004
0.000718445
0.000718875
0.000719295
0.00071971
0.000720115
0.000720515
0.000720908
0.000721296
0.000721675
0.000722054
0.000722423
0.000722791
0.000723146
0.000723501
0.000723841
0.000724177
0.000724496
0.000724813
0.00072511
0.000725402
0.000725671
0.000725936
0.000726175
0.000726408
0.000726616
0.000726821
0.000726994
0.000727166
0.000727305
0.00072743
0.000727524
0.000727613
0.000727678
0.000727748
0.000727802
0.000727863
0.000727913
0.000727974
0.000728018
0.000728071
0.000728098
0.000728125
0.000728126
0.000728128
0.000728105
0.0007281
0.000728092
0.00072809
0.000728089
0.000728084
0.000728083
0.00072808
0.000728065
0.000728061
0.000728049
0.000728026
0.000728021
0.000728012
0.00072802
0.000728012
0.000728029
0.000728029
0.000728048
0.000728051
0.000728085
0.000728074
0.000728107
0.000728094
0.000728132
0.000728119
0.000728135
0.00072813
0.000728134
0.000728171
0.000728161
0.000728218
0.000728204
0.000728263
0.00072829
0.00202514
0.00099938
0.000588385
0.000356145
0.000242866
0.000176817
0.000145636
0.000134442
0.000134978
0.000145408
0.000161854
0.000183387
0.000207572
0.000233373
0.000259477
0.000285858
0.000311545
0.000336608
0.000360582
0.000383842
0.000405661
0.000426649
0.000446469
0.00046551
0.000483393
0.000500255
0.000516401
0.000531717
0.000546221
0.000560099
0.000573148
0.000585618
0.000597485
0.00060879
0.000619544
0.000629833
0.000639599
0.000648961
0.000657874
0.000666431
0.000674571
0.000682385
0.000689853
0.000696992
0.000703854
0.000710416
0.000716716
0.000722765
0.000728568
0.000734162
0.000739528
0.000744699
0.000749648
0.000754453
0.000759071
0.000763515
0.000767802
0.000771944
0.000775943
0.000779802
0.000783531
0.000787135
0.000790619
0.000793989
0.000797245
0.000800411
0.000803469
0.000806434
0.000809306
0.000812092
0.000814792
0.000817415
0.000819958
0.000822428
0.000824828
0.000827159
0.000829425
0.000831629
0.000833769
0.000835855
0.000837885
0.000839857
0.00084178
0.000843651
0.000845474
0.000847251
0.000848983
0.000850671
0.000852318
0.000853923
0.00085549
0.000857017
0.00085851
0.000859965
0.000861388
0.000862776
0.000864132
0.000865459
0.000866755
0.000868021
0.00086926
0.00087047
0.000871655
0.000872813
0.000873945
0.000875054
0.000876138
0.0008772
0.000878237
0.000879255
0.000880249
0.000881225
0.000882177
0.000883111
0.000884024
0.000884917
0.000885792
0.000886648
0.000887485
0.000888304
0.000889104
0.000889888
0.000890656
0.000891409
0.000892151
0.000892876
0.000893593
0.000894296
0.000894991
0.000895672
0.00089635
0.000897013
0.000897672
0.000898312
0.000898949
0.000899564
0.000900174
0.000900757
0.000901335
0.000901884
0.000902426
0.000902932
0.000903432
0.000903893
0.000904346
0.00090476
0.000905169
0.00090553
0.000905888
0.0009062
0.000906492
0.000906736
0.000906971
0.000907169
0.000907373
0.000907549
0.000907735
0.000907898
0.000908076
0.000908226
0.000908389
0.000908516
0.000908642
0.000908729
0.000908815
0.000908866
0.000908939
0.000909003
0.000909074
0.000909144
0.00090921
0.000909278
0.00090934
0.000909387
0.000909448
0.000909493
0.000909527
0.000909581
0.000909629
0.000909696
0.000909741
0.000909817
0.000909872
0.000909949
0.000910011
0.000910103
0.000910144
0.000910236
0.000910272
0.000910369
0.000910399
0.000910471
0.000910506
0.000910567
0.000910649
0.000910696
0.000910796
0.000910844
0.000910942
0.000911104
0.00226807
0.00154533
0.00104269
0.000695894
0.000495074
0.000353902
0.00027196
0.000215491
0.000184314
0.000169879
0.000166806
0.000173435
0.000187035
0.000206237
0.000228949
0.000254342
0.000280952
0.000308311
0.00033548
0.000362557
0.000388749
0.000414273
0.000438787
0.000462503
0.000485216
0.000506851
0.000527617
0.000547515
0.000566529
0.000584795
0.000601964
0.00061858
0.000634435
0.000649585
0.000664077
0.000677993
0.000691199
0.000703916
0.000716058
0.00072775
0.000738904
0.000749655
0.000759963
0.00076983
0.000779342
0.000788477
0.000797273
0.000805733
0.000813879
0.000821744
0.000829306
0.000836608
0.000843633
0.000850433
0.000857001
0.000863339
0.000869469
0.000875402
0.000881138
0.000886686
0.000892056
0.000897256
0.000902292
0.000907169
0.000911897
0.000916499
0.000920948
0.000925271
0.000929464
0.000933539
0.000937495
0.000941343
0.000945081
0.000948717
0.000952255
0.000955695
0.000959046
0.000962308
0.00096548
0.000968579
0.000971595
0.000974532
0.000977397
0.00098019
0.000982915
0.000985574
0.000988169
0.000990701
0.000993175
0.000995589
0.000997948
0.00100025
0.0010025
0.0010047
0.00100686
0.00100896
0.00101101
0.00101303
0.001015
0.00101692
0.00101881
0.00102066
0.00102246
0.00102423
0.00102596
0.00102766
0.00102932
0.00103095
0.00103255
0.00103411
0.00103564
0.00103714
0.00103861
0.00104005
0.00104147
0.00104285
0.0010442
0.00104553
0.00104683
0.0010481
0.00104935
0.00105057
0.00105177
0.00105294
0.0010541
0.00105523
0.00105635
0.00105745
0.00105854
0.0010596
0.00106066
0.0010617
0.00106273
0.00106373
0.00106473
0.00106569
0.00106665
0.00106757
0.00106848
0.00106935
0.00107021
0.00107102
0.00107182
0.00107257
0.00107331
0.00107399
0.00107466
0.00107527
0.00107587
0.00107641
0.00107692
0.00107737
0.0010778
0.00107818
0.00107856
0.00107891
0.00107926
0.00107957
0.00107991
0.0010802
0.00108051
0.00108077
0.00108103
0.00108124
0.00108145
0.0010816
0.00108178
0.00108195
0.00108212
0.00108229
0.00108245
0.00108261
0.00108276
0.0010829
0.00108305
0.00108317
0.00108329
0.00108342
0.00108355
0.00108369
0.00108381
0.00108396
0.00108409
0.00108425
0.00108439
0.00108455
0.00108467
0.00108483
0.00108494
0.00108511
0.0010852
0.00108535
0.00108544
0.00108557
0.00108572
0.00108584
0.00108599
0.00108613
0.00108627
0.00108661
0.00235557
0.0019664
0.00150156
0.0011166
0.000855115
0.000645512
0.000506375
0.000397064
0.00032312
0.000267777
0.000232115
0.000212154
0.000203292
0.000204444
0.000213166
0.000228269
0.000247976
0.00027129
0.000296704
0.000323716
0.000351266
0.000379069
0.000406584
0.000433709
0.000460225
0.00048594
0.000510826
0.000534936
0.000558133
0.000580621
0.000602064
0.000622764
0.00064267
0.000661788
0.000680214
0.000697933
0.00071476
0.000731132
0.000746795
0.000761922
0.000776389
0.000790423
0.00080388
0.000816792
0.000829288
0.000841317
0.000852933
0.000864117
0.000874926
0.000885374
0.000895433
0.000905168
0.000914568
0.000923663
0.000932472
0.000940988
0.000949228
0.00095722
0.000964952
0.000972446
0.000979711
0.000986759
0.000993594
0.00100023
0.00100667
0.00101293
0.00101901
0.00102493
0.00103067
0.00103626
0.00104169
0.00104698
0.00105212
0.00105714
0.00106202
0.00106677
0.00107141
0.00107593
0.00108032
0.00108463
0.00108882
0.0010929
0.0010969
0.00110079
0.0011046
0.00110831
0.00111194
0.00111549
0.00111895
0.00112234
0.00112565
0.00112889
0.00113206
0.00113515
0.00113819
0.00114115
0.00114405
0.0011469
0.00114968
0.00115241
0.00115508
0.0011577
0.00116026
0.00116277
0.00116523
0.00116765
0.00117001
0.00117233
0.0011746
0.00117683
0.00117902
0.00118116
0.00118326
0.00118533
0.00118735
0.00118933
0.00119127
0.00119318
0.00119504
0.00119688
0.00119867
0.00120043
0.00120216
0.00120385
0.00120552
0.00120716
0.00120877
0.00121036
0.00121192
0.00121346
0.00121499
0.00121648
0.00121797
0.00121941
0.00122085
0.00122225
0.00122363
0.00122497
0.00122629
0.00122756
0.00122882
0.00123001
0.00123118
0.00123229
0.00123338
0.00123439
0.0012354
0.00123632
0.00123723
0.00123805
0.00123885
0.00123956
0.00124024
0.00124085
0.00124147
0.00124203
0.0012426
0.00124311
0.00124365
0.00124412
0.00124462
0.00124506
0.0012455
0.00124587
0.00124623
0.00124652
0.00124685
0.00124715
0.00124745
0.00124775
0.00124804
0.00124833
0.00124859
0.00124884
0.00124911
0.00124934
0.00124956
0.0012498
0.00125003
0.00125027
0.00125049
0.00125074
0.00125096
0.00125122
0.00125146
0.00125172
0.00125193
0.00125219
0.00125239
0.00125265
0.00125282
0.00125305
0.00125322
0.00125346
0.00125368
0.0012539
0.00125411
0.00125437
0.00125454
0.00125511
0.00237522
0.00222138
0.00187433
0.00152479
0.00125212
0.001009
0.000828867
0.000675649
0.000559761
0.00046331
0.00039094
0.000332991
0.000291226
0.000264178
0.000247926
0.000241755
0.000243887
0.000253126
0.000267921
0.000287297
0.000309895
0.000334887
0.00036134
0.000388691
0.000416442
0.00044423
0.000471708
0.000498836
0.000525315
0.000551283
0.000576436
0.00060087
0.000624548
0.000647474
0.000669637
0.000691147
0.000711754
0.000731765
0.00075103
0.000769711
0.000787639
0.000805151
0.000821872
0.000838012
0.000853715
0.000868852
0.000883512
0.000897645
0.000911367
0.000924631
0.000937421
0.000949838
0.000961863
0.000973506
0.000984806
0.000995746
0.00100636
0.00101667
0.00102665
0.00103635
0.00104576
0.00105491
0.00106379
0.00107244
0.00108083
0.001089
0.00109695
0.00110469
0.00111221
0.00111954
0.00112667
0.00113362
0.0011404
0.001147
0.00115344
0.00115971
0.00116584
0.00117181
0.00117764
0.00118333
0.00118889
0.00119432
0.00119962
0.0012048
0.00120986
0.0012148
0.00121964
0.00122437
0.001229
0.00123352
0.00123795
0.00124228
0.00124652
0.00125067
0.00125474
0.00125872
0.00126262
0.00126644
0.00127019
0.00127386
0.00127745
0.00128098
0.00128444
0.00128783
0.00129115
0.00129441
0.00129761
0.00130075
0.00130383
0.00130685
0.00130981
0.00131272
0.00131557
0.00131837
0.00132112
0.00132382
0.00132646
0.00132906
0.00133161
0.00133411
0.00133655
0.00133896
0.00134132
0.00134364
0.00134592
0.00134816
0.00135037
0.00135254
0.00135468
0.00135679
0.00135887
0.00136092
0.00136295
0.00136494
0.00136691
0.00136882
0.00137072
0.00137256
0.00137438
0.00137613
0.00137786
0.00137951
0.00138114
0.00138268
0.0013842
0.00138562
0.00138704
0.00138833
0.00138962
0.00139081
0.00139196
0.00139299
0.001394
0.00139489
0.00139581
0.00139664
0.00139749
0.00139825
0.00139904
0.00139975
0.00140049
0.00140115
0.00140181
0.00140239
0.00140295
0.00140343
0.00140394
0.00140441
0.00140489
0.00140534
0.00140579
0.00140624
0.00140665
0.00140705
0.00140748
0.00140783
0.00140819
0.00140858
0.00140893
0.0014093
0.00140963
0.00141001
0.00141035
0.00141072
0.0014111
0.00141146
0.0014118
0.00141218
0.00141249
0.00141286
0.00141314
0.00141348
0.00141374
0.00141411
0.00141442
0.00141476
0.00141505
0.00141546
0.00141566
0.00141653
0.00237154
0.00234596
0.00213198
0.00185902
0.00161675
0.0013779
0.00118499
0.00101017
0.000866944
0.000740626
0.000637343
0.000546088
0.000474101
0.000412496
0.000363873
0.00032871
0.000304168
0.000289304
0.000283256
0.000284846
0.000292875
0.000306381
0.00032419
0.00034537
0.000369014
0.000394465
0.000420973
0.000448227
0.000475682
0.000503251
0.000530571
0.000557549
0.000584039
0.000610015
0.000635338
0.000660135
0.000684153
0.00070757
0.000730256
0.000752361
0.000773709
0.000794538
0.000814683
0.000834146
0.000853085
0.000871421
0.000889243
0.000906458
0.000923277
0.000939487
0.000955167
0.000970467
0.000985307
0.000999696
0.00101369
0.00102725
0.00104046
0.0010533
0.00106572
0.00107784
0.00108961
0.00110108
0.00111222
0.00112308
0.00113363
0.00114393
0.00115396
0.00116371
0.00117322
0.0011825
0.00119154
0.00120036
0.00120896
0.00121735
0.00122554
0.00123353
0.00124135
0.00124897
0.00125641
0.00126369
0.0012708
0.00127775
0.00128455
0.00129119
0.00129769
0.00130405
0.00131027
0.00131636
0.00132232
0.00132815
0.00133386
0.00133946
0.00134494
0.0013503
0.00135557
0.00136072
0.00136577
0.00137073
0.00137559
0.00138035
0.00138503
0.00138961
0.0013941
0.00139852
0.00140284
0.00140709
0.00141126
0.00141535
0.00141937
0.00142331
0.00142718
0.00143099
0.00143472
0.00143839
0.00144198
0.00144552
0.00144898
0.00145239
0.00145573
0.00145902
0.00146223
0.00146539
0.0014685
0.00147155
0.00147455
0.0014775
0.00148041
0.00148327
0.00148609
0.00148886
0.00149161
0.0014943
0.00149697
0.00149959
0.00150218
0.00150471
0.00150722
0.00150965
0.00151205
0.00151437
0.00151667
0.00151887
0.00152103
0.00152309
0.00152512
0.00152704
0.00152894
0.0015307
0.00153245
0.00153406
0.00153566
0.00153709
0.00153848
0.00153974
0.00154101
0.00154219
0.00154338
0.00154446
0.00154556
0.00154655
0.00154758
0.00154851
0.00154947
0.0015503
0.00155112
0.00155183
0.00155258
0.00155325
0.00155395
0.0015546
0.00155526
0.0015559
0.0015565
0.00155708
0.0015577
0.00155821
0.00155876
0.00155931
0.00155982
0.00156034
0.00156082
0.00156136
0.00156183
0.00156237
0.0015629
0.00156339
0.00156389
0.0015644
0.00156485
0.00156536
0.00156577
0.00156624
0.00156662
0.00156714
0.00156758
0.00156805
0.00156846
0.00156904
0.00156927
0.0015705
0.0023634
0.0023892
0.00228623
0.00209802
0.00190995
0.00170374
0.00152199
0.00134861
0.00119778
0.00105835
0.000937353
0.000826411
0.000731061
0.00064481
0.000570317
0.000506565
0.000451938
0.000408301
0.000375278
0.000350947
0.000335441
0.000327976
0.000327505
0.000333238
0.000344231
0.000359656
0.000378511
0.000400172
0.000423802
0.000448964
0.000475089
0.00050185
0.000528874
0.000556018
0.000582979
0.000609781
0.000636147
0.000662125
0.00068755
0.000712508
0.000736844
0.000760652
0.000783894
0.00080648
0.000828524
0.000849959
0.000870874
0.000891167
0.000910989
0.000930252
0.000948941
0.000967154
0.000984891
0.00100213
0.00101894
0.00103525
0.00105121
0.0010667
0.00108172
0.00109642
0.00111073
0.00112468
0.00113825
0.0011515
0.0011644
0.001177
0.00118929
0.00120125
0.00121293
0.00122434
0.00123547
0.00124634
0.00125695
0.00126732
0.00127744
0.00128734
0.00129702
0.00130648
0.00131572
0.00132476
0.0013336
0.00134225
0.00135072
0.001359
0.00136711
0.00137505
0.00138282
0.00139044
0.0013979
0.00140521
0.00141237
0.00141938
0.00142626
0.001433
0.00143962
0.0014461
0.00145246
0.0014587
0.00146482
0.00147083
0.00147672
0.00148251
0.00148818
0.00149376
0.00149923
0.00150461
0.00150988
0.00151507
0.00152015
0.00152516
0.00153007
0.0015349
0.00153963
0.00154429
0.00154887
0.00155336
0.00155778
0.00156211
0.00156637
0.00157056
0.00157467
0.0015787
0.00158267
0.00158656
0.0015904
0.00159417
0.00159789
0.00160154
0.00160515
0.0016087
0.00161221
0.00161566
0.00161908
0.00162243
0.00162574
0.00162898
0.00163219
0.00163531
0.0016384
0.00164139
0.00164434
0.00164718
0.00164998
0.00165265
0.00165529
0.00165778
0.00166026
0.00166256
0.00166486
0.00166698
0.00166911
0.00167103
0.00167291
0.00167458
0.00167631
0.00167789
0.0016795
0.00168097
0.00168245
0.00168379
0.00168518
0.00168644
0.00168775
0.0016889
0.00169004
0.00169103
0.00169207
0.001693
0.00169397
0.00169487
0.00169578
0.00169665
0.00169747
0.0016983
0.00169914
0.00169985
0.00170063
0.0017014
0.00170209
0.00170279
0.00170345
0.00170417
0.00170482
0.00170555
0.00170627
0.00170691
0.00170761
0.00170828
0.00170889
0.00170955
0.00171013
0.00171076
0.00171128
0.001712
0.00171258
0.00171321
0.00171377
0.00171454
0.00171481
0.00171646
0.00235738
0.00239313
0.00236244
0.00224918
0.00212001
0.00196192
0.00180779
0.00165277
0.00151022
0.00137361
0.00124956
0.00113252
0.001026
0.000927345
0.000837305
0.000755564
0.000679765
0.000614708
0.000555755
0.000504271
0.000463013
0.000429839
0.000404399
0.000386862
0.000376688
0.000373096
0.000375421
0.000383029
0.000395048
0.000410825
0.000429599
0.000450812
0.000473815
0.00049824
0.00052357
0.000549611
0.00057598
0.000602555
0.00062908
0.000655504
0.000681668
0.000707505
0.000733009
0.000758032
0.000782626
0.000806703
0.000830326
0.000853398
0.000875991
0.00089808
0.000919629
0.00094067
0.000961231
0.000981284
0.00100088
0.00101998
0.00103865
0.00105687
0.0010746
0.00109194
0.00110886
0.00112539
0.0011415
0.00115727
0.00117262
0.00118768
0.00120235
0.00121663
0.00123064
0.00124433
0.0012577
0.00127078
0.00128356
0.00129606
0.00130828
0.00132025
0.00133196
0.00134339
0.00135459
0.00136556
0.0013763
0.00138681
0.00139711
0.00140719
0.00141708
0.00142676
0.00143624
0.00144555
0.00145466
0.0014636
0.00147236
0.00148096
0.00148939
0.00149766
0.00150577
0.00151374
0.00152155
0.00152923
0.00153676
0.00154415
0.00155142
0.00155855
0.00156555
0.00157243
0.00157919
0.00158583
0.00159235
0.00159876
0.00160506
0.00161126
0.00161734
0.00162332
0.0016292
0.00163498
0.00164066
0.00164624
0.00165173
0.00165713
0.00166243
0.00166764
0.00167275
0.00167778
0.00168273
0.00168759
0.00169238
0.00169709
0.00170173
0.00170629
0.0017108
0.00171523
0.00171961
0.00172392
0.00172818
0.00173237
0.00173651
0.00174057
0.00174458
0.0017485
0.00175236
0.00175612
0.00175983
0.0017634
0.00176693
0.00177031
0.00177365
0.00177681
0.00177998
0.00178292
0.00178589
0.00178857
0.00179136
0.00179383
0.00179628
0.00179847
0.00180072
0.00180278
0.00180492
0.00180686
0.00180881
0.00181056
0.00181239
0.00181403
0.00181576
0.00181728
0.00181882
0.00182016
0.00182155
0.00182279
0.0018241
0.00182529
0.00182652
0.00182766
0.00182874
0.00182988
0.001831
0.00183195
0.00183302
0.00183403
0.00183495
0.00183586
0.00183673
0.00183767
0.00183854
0.00183951
0.00184043
0.00184125
0.00184221
0.00184305
0.00184385
0.00184469
0.00184546
0.00184628
0.00184698
0.00184795
0.00184867
0.0018495
0.00185025
0.00185122
0.00185161
0.0018537
0.00235431
0.00238296
0.00238922
0.00233295
0.00225401
0.0021468
0.00202857
0.00190202
0.00177881
0.00165624
0.00154028
0.00142819
0.00132242
0.00122214
0.00112683
0.00103785
0.000953421
0.00087516
0.000802357
0.000733642
0.000673475
0.000617472
0.000568193
0.000527044
0.000492851
0.000465192
0.000444704
0.000430902
0.000423258
0.000421352
0.0004246
0.000432451
0.000444195
0.000459322
0.00047717
0.000497303
0.000519184
0.000542461
0.00056674
0.000591756
0.000617276
0.000643052
0.000669003
0.000694911
0.000720736
0.000746334
0.000771701
0.000796729
0.000821413
0.000845722
0.000869615
0.000893069
0.000916101
0.000938674
0.000960817
0.000982497
0.00100374
0.00102456
0.0010449
0.00106483
0.00108432
0.00110341
0.00112207
0.00114036
0.00115822
0.00117573
0.00119286
0.00120959
0.00122598
0.00124203
0.00125774
0.00127312
0.00128817
0.00130292
0.00131735
0.00133152
0.00134537
0.0013589
0.0013722
0.00138523
0.001398
0.00141051
0.00142278
0.0014348
0.0014466
0.00145816
0.0014695
0.00148064
0.00149155
0.00150226
0.00151277
0.00152308
0.00153321
0.00154315
0.00155291
0.0015625
0.00157191
0.00158116
0.00159024
0.00159917
0.00160794
0.00161655
0.00162502
0.00163334
0.00164152
0.00164956
0.00165747
0.00166524
0.00167288
0.0016804
0.00168779
0.00169506
0.0017022
0.00170923
0.00171615
0.00172295
0.00172963
0.00173621
0.00174267
0.00174903
0.00175529
0.00176143
0.00176748
0.00177343
0.00177928
0.00178504
0.00179072
0.00179631
0.00180183
0.00180726
0.00181262
0.0018179
0.00182312
0.00182825
0.00183332
0.00183831
0.00184322
0.00184804
0.00185279
0.00185741
0.00186198
0.0018664
0.00187075
0.00187495
0.00187909
0.00188303
0.00188696
0.00189064
0.00189432
0.00189773