/*--------------------------------*- C++ -*----------------------------------*\
  =========                 |
  \\      /  F ield         | OpenFOAM: The Open Source CFD Toolbox
   \\    /   O peration     | Website:  https://openfoam.org
    \\  /    A nd           | Version:  12
     \\/     M anipulation  |
\*---------------------------------------------------------------------------*/
FoamFile
{
    format      ascii;
    class       surfaceScalarField;
    location    "400";
    object      phi;
}
// * * * * * * * * * * * * * * * * * * * * * * * * * * * * * * * * * * * * * //

dimensions      [0 3 -1 0 0 0 0];

internalField   nonuniform List<scalar> 
39700
(
0.000289049
0.000218412
0.000158809
0.00013024
0.000114185
4.46239e-05
9.67896e-05
1.73959e-05
8.76337e-05
9.15508e-06
8.18564e-05
5.7776e-06
7.80683e-05
3.7881e-06
7.53672e-05
2.70152e-06
7.33144e-05
2.05266e-06
7.16125e-05
1.702e-06
7.01868e-05
1.42567e-06
6.8981e-05
1.20597e-06
6.79022e-05
1.0787e-06
6.69903e-05
9.11956e-07
6.61937e-05
7.96624e-07
6.54761e-05
7.17615e-07
6.48193e-05
6.56851e-07
6.42118e-05
6.07541e-07
6.36464e-05
5.65405e-07
6.31269e-05
5.19532e-07
6.26366e-05
4.90338e-07
6.21742e-05
4.62419e-07
6.17368e-05
4.37368e-07
6.13256e-05
4.1122e-07
6.09383e-05
3.87326e-07
6.05652e-05
3.73062e-07
6.02109e-05
3.54328e-07
5.98691e-05
3.41771e-07
5.95434e-05
3.25672e-07
5.92296e-05
3.1379e-07
5.89296e-05
3.0002e-07
5.86384e-05
2.91196e-07
5.83587e-05
2.79735e-07
5.80888e-05
2.69887e-07
5.78271e-05
2.61718e-07
5.7574e-05
2.53034e-07
5.73308e-05
2.43202e-07
5.70938e-05
2.3699e-07
5.68644e-05
2.29419e-07
5.66421e-05
2.22287e-07
5.64251e-05
2.16996e-07
5.62155e-05
2.09619e-07
5.60105e-05
2.04985e-07
5.58126e-05
1.97913e-07
5.5619e-05
1.93567e-07
5.54308e-05
1.8821e-07
5.52466e-05
1.84246e-07
5.5068e-05
1.78528e-07
5.48928e-05
1.75199e-07
5.4723e-05
1.69814e-07
5.45568e-05
1.6621e-07
5.43947e-05
1.62086e-07
5.42359e-05
1.58808e-07
5.40812e-05
1.54682e-07
5.39299e-05
1.51337e-07
5.37821e-05
1.47728e-07
5.36377e-05
1.44491e-07
5.3496e-05
1.4168e-07
5.33577e-05
1.38263e-07
5.32221e-05
1.35568e-07
5.30896e-05
1.32484e-07
5.29597e-05
1.2992e-07
5.28325e-05
1.27169e-07
5.27081e-05
1.24474e-07
5.25857e-05
1.22386e-07
5.24661e-05
1.19614e-07
5.23485e-05
1.17526e-07
5.22336e-05
1.14879e-07
5.21207e-05
1.12949e-07
5.20101e-05
1.10573e-07
5.19015e-05
1.08607e-07
5.17949e-05
1.06552e-07
5.16902e-05
1.04732e-07
5.15875e-05
1.02672e-07
5.14867e-05
1.00866e-07
5.13876e-05
9.90063e-08
5.12904e-05
9.72139e-08
5.11949e-05
9.55155e-08
5.11012e-05
9.36833e-08
5.10089e-05
9.23198e-08
5.09184e-05
9.05017e-08
5.08292e-05
8.91771e-08
5.07418e-05
8.74115e-08
5.06556e-05
8.619e-08
5.05711e-05
8.44818e-08
5.04878e-05
8.32966e-08
5.0406e-05
8.17094e-08
5.03255e-05
8.05377e-08
5.02464e-05
7.90897e-08
5.01684e-05
7.79888e-08
5.00919e-05
7.65362e-08
5.00163e-05
7.55274e-08
4.99422e-05
7.40991e-08
4.9869e-05
7.31624e-08
4.97972e-05
7.17847e-08
4.97264e-05
7.08652e-08
4.96567e-05
6.96054e-08
4.95881e-05
6.86681e-08
4.95205e-05
6.75233e-08
4.94539e-05
6.66045e-08
4.93884e-05
6.54969e-08
4.93238e-05
6.46182e-08
4.92602e-05
6.35585e-08
4.91975e-05
6.27101e-08
4.91357e-05
6.17198e-08
4.90749e-05
6.08564e-08
4.90149e-05
5.99878e-08
4.89558e-05
5.90777e-08
4.88974e-05
5.83352e-08
4.884e-05
5.74162e-08
4.87833e-05
5.672e-08
4.87274e-05
5.58424e-08
4.86722e-05
5.51708e-08
4.86179e-05
5.4327e-08
4.85641e-05
5.37241e-08
4.85112e-05
5.29257e-08
4.84588e-05
5.22982e-08
4.84073e-05
5.15513e-08
4.83563e-05
5.09434e-08
4.8306e-05
5.02611e-08
4.82563e-05
4.96164e-08
4.82074e-05
4.88957e-08
4.81591e-05
4.82727e-08
4.81116e-05
4.75185e-08
4.80647e-05
4.68398e-08
4.80186e-05
4.61007e-08
4.79731e-05
4.54271e-08
4.79284e-05
4.47633e-08
4.78843e-05
4.40869e-08
4.78408e-05
4.34598e-08
4.77979e-05
4.28363e-08
4.77556e-05
4.24097e-08
4.77136e-05
4.18945e-08
4.7672e-05
4.15873e-08
4.76307e-05
4.12413e-08
4.75896e-05
4.11254e-08
4.75486e-05
4.09204e-08
4.75076e-05
4.09076e-08
4.74668e-05
4.08123e-08
4.74258e-05
4.09472e-08
4.73848e-05
4.09306e-08
4.73436e-05
4.11092e-08
4.73024e-05
4.11777e-08
4.7261e-05
4.1402e-08
4.72196e-05
4.12672e-08
4.71781e-05
4.14135e-08
4.71366e-05
4.1459e-08
4.70949e-05
4.17157e-08
4.70531e-05
4.16832e-08
4.70111e-05
4.19935e-08
4.69691e-05
4.19322e-08
4.69274e-05
4.18814e-08
4.6886e-05
4.11185e-08
4.68451e-05
4.09193e-08
4.68046e-05
4.04024e-08
4.67647e-05
4.00844e-08
4.67254e-05
3.90065e-08
4.66871e-05
3.83722e-08
4.66495e-05
3.75116e-08
4.66126e-05
3.71515e-08
4.6576e-05
3.62009e-08
4.654e-05
3.60532e-08
4.65042e-05
3.57248e-08
4.6469e-05
3.54883e-08
4.64341e-05
3.45538e-08
4.64001e-05
3.4077e-08
4.63667e-05
3.33848e-08
4.63341e-05
3.28274e-08
4.6302e-05
3.18012e-08
4.62708e-05
3.11979e-08
4.62398e-05
3.08302e-08
4.62098e-05
3.02693e-08
4.61802e-05
2.93831e-08
4.61511e-05
2.93305e-08
4.61224e-05
2.87161e-08
4.60943e-05
2.84921e-08
4.60662e-05
2.77642e-08
4.60391e-05
2.72297e-08
4.60125e-05
2.65423e-08
4.59866e-05
2.62064e-08
4.59612e-05
2.51117e-08
4.59361e-05
2.50471e-08
4.59118e-05
2.42714e-08
4.58871e-05
2.49716e-08
4.58635e-05
2.33099e-08
4.58394e-05
2.41582e-08
4.58165e-05
2.28782e-08
4.57924e-05
2.43524e-08
4.57704e-05
2.17397e-08
4.57459e-05
2.44664e-08
4.5725e-05
2.08646e-08
4.56997e-05
2.55041e-08
4.56805e-05
1.91365e-08
4.56538e-05
2.68033e-08
4.56376e-05
1.62082e-08
4.56111e-05
2.65847e-08
4.56007e-05
1.07145e-08
4.55762e-05
2.44411e-08
4.5587e-05
-1.04308e-08
5.16355e-08
0.000488266
0.000262024
0.000397815
0.000220691
0.000326643
0.000115795
0.000282378
6.16619e-05
0.000254843
3.66893e-05
0.000236501
2.41197e-05
0.000223532
1.67567e-05
0.000213788
1.24454e-05
0.000206138
9.70243e-06
0.000199861
7.97921e-06
0.000194625
6.66185e-06
0.000190201
5.62998e-06
0.000186359
4.91988e-06
0.000183057
4.21425e-06
0.000180169
3.68483e-06
0.000177593
3.29375e-06
0.00017527
2.97938e-06
0.000173163
2.71497e-06
0.000171234
2.49405e-06
0.000169471
2.28257e-06
0.000167837
2.12388e-06
0.000166322
1.97825e-06
0.000164907
1.85246e-06
0.000163589
1.72893e-06
0.000162357
1.61902e-06
0.000161192
1.53843e-06
0.000160093
1.45329e-06
0.000159049
1.38507e-06
0.000158062
1.31305e-06
0.000157123
1.25311e-06
0.000156229
1.19397e-06
0.000155373
1.14728e-06
0.000154556
1.09682e-06
0.000153774
1.05184e-06
0.000153022
1.013e-06
0.000152301
9.74372e-07
0.00015161
9.34506e-07
0.000150942
9.04272e-07
0.0001503
8.71819e-07
0.000149681
8.41475e-07
0.000149081
8.16501e-07
0.000148503
7.87745e-07
0.000147943
7.65454e-07
0.000147402
7.38792e-07
0.000146877
7.18363e-07
0.000146368
6.97242e-07
0.000145873
6.79028e-07
0.000145394
6.57812e-07
0.000144927
6.4198e-07
0.000144475
6.22297e-07
0.000144034
6.06589e-07
0.000143606
5.90622e-07
0.000143188
5.76706e-07
0.000142781
5.61085e-07
0.000142385
5.47547e-07
0.000141999
5.33733e-07
0.000141623
5.20943e-07
0.000141255
5.09447e-07
0.000140896
4.96845e-07
0.000140546
4.8599e-07
0.000140204
4.74484e-07
0.00013987
4.64348e-07
0.000139543
4.53923e-07
0.000139223
4.43843e-07
0.000138911
4.35253e-07
0.000138605
4.25377e-07
0.000138305
4.17024e-07
0.000138013
4.07644e-07
0.000137726
3.99894e-07
0.000137445
3.91373e-07
0.00013717
3.8378e-07
0.0001369
3.76194e-07
0.000136635
3.69256e-07
0.000136376
3.61824e-07
0.000136122
3.55048e-07
0.000135873
3.4823e-07
0.000135628
3.41672e-07
0.000135389
3.3534e-07
0.000135153
3.28866e-07
0.000134922
3.23428e-07
0.000134696
3.17208e-07
0.000134473
3.11995e-07
0.000134254
3.05981e-07
0.000134039
3.01113e-07
0.000133828
2.95345e-07
0.000133621
2.90658e-07
0.000133417
2.85276e-07
0.000133217
2.80726e-07
0.000133021
2.75763e-07
0.000132827
2.71506e-07
0.000132637
2.66614e-07
0.00013245
2.62641e-07
0.000132266
2.57887e-07
0.000132085
2.54164e-07
0.000131907
2.49588e-07
0.000131732
2.45984e-07
0.00013156
2.41759e-07
0.00013139
2.38184e-07
0.000131224
2.34279e-07
0.000131059
2.30854e-07
0.000130898
2.27073e-07
0.000130739
2.23801e-07
0.000130582
2.20172e-07
0.000130428
2.1704e-07
0.000130276
2.13621e-07
0.000130126
2.10519e-07
0.000129979
2.07415e-07
0.000129833
2.04267e-07
0.00012969
2.01506e-07
0.000129549
1.98413e-07
0.00012941
1.95785e-07
0.000129273
1.9283e-07
0.000129138
1.90333e-07
0.000129005
1.87501e-07
0.000128873
1.85189e-07
0.000128744
1.825e-07
0.000128616
1.80191e-07
0.00012849
1.7765e-07
0.000128365
1.75393e-07
0.000128242
1.73001e-07
0.000128121
1.70717e-07
0.000128002
1.68223e-07
0.000127884
1.6597e-07
0.000127768
1.63379e-07
0.000127654
1.61048e-07
0.000127542
1.58516e-07
0.000127431
1.56181e-07
0.000127322
1.53863e-07
0.000127214
1.51616e-07
0.000127108
1.49435e-07
0.000127004
1.47377e-07
0.0001269
1.45782e-07
0.000126798
1.44177e-07
0.000126697
1.42999e-07
0.000126596
1.41863e-07
0.000126496
1.41271e-07
0.000126396
1.40623e-07
0.000126297
1.40363e-07
0.000126197
1.40029e-07
0.000126098
1.40183e-07
0.000125999
1.40118e-07
0.000125899
1.40417e-07
0.0001258
1.40524e-07
0.0001257
1.40829e-07
0.000125601
1.40515e-07
0.000125502
1.40646e-07
0.000125403
1.40599e-07
0.000125303
1.41004e-07
0.000125204
1.41e-07
0.000125105
1.41352e-07
0.000125006
1.40888e-07
0.000124908
1.40156e-07
0.00012481
1.38238e-07
0.000124714
1.37143e-07
0.000124619
1.3538e-07
0.000124525
1.338e-07
0.000124433
1.30835e-07
0.000124344
1.28367e-07
0.000124255
1.25598e-07
0.000124169
1.23832e-07
0.000124084
1.2141e-07
0.000123999
1.20421e-07
0.000123916
1.19053e-07
0.000123834
1.17662e-07
0.000123753
1.15174e-07
0.000123674
1.13419e-07
0.000123596
1.11069e-07
0.00012352
1.08947e-07
0.000123446
1.06261e-07
0.000123373
1.0417e-07
0.000123301
1.02654e-07
0.000123231
1.00463e-07
0.000123162
9.81702e-08
0.000123094
9.74515e-08
0.000123028
9.54118e-08
0.000122962
9.4175e-08
0.000122897
9.2568e-08
0.000122834
9.05895e-08
0.000122772
8.8478e-08
0.000122712
8.67627e-08
0.000122652
8.44359e-08
0.000122594
8.33383e-08
0.000122537
8.15922e-08
0.00012248
8.21045e-08
0.000122424
7.89169e-08
0.000122369
7.95458e-08
0.000122314
7.74913e-08
0.00012226
7.90769e-08
0.000122207
7.49492e-08
0.000122152
7.87516e-08
0.0001221
7.29028e-08
0.000122046
8.02686e-08
0.000121996
6.90635e-08
0.00012194
8.27797e-08
0.000121894
6.18273e-08
0.00012184
8.04884e-08
0.000121802
4.92084e-08
0.000121756
7.08439e-08
0.000121748
-2.95028e-09
1.18298e-07
0.000561758
0.000257732
0.000533663
0.000248786
0.000488962
0.000160496
0.000442263
0.000108362
0.000405039
7.39133e-05
0.000376232
5.29264e-05
0.000353832
3.91571e-05
0.000336084
3.01936e-05
0.000321768
2.40179e-05
0.000309974
1.97738e-05
0.000300113
1.6523e-05
0.000291764
1.39791e-05
0.000284585
1.20984e-05
0.000278362
1.04372e-05
0.000272908
9.13897e-06
0.000268063
8.13889e-06
0.000263729
7.31341e-06
0.000259828
6.6167e-06
0.000256285
6.03699e-06
0.00025306
5.5073e-06
0.0002501
5.08415e-06
0.000247374
4.70375e-06
0.000244849
4.37721e-06
0.00024251
4.0679e-06
0.000240335
3.79467e-06
0.000238295
3.57857e-06
0.000236382
3.36563e-06
0.000234581
3.18654e-06
0.000232886
3.00841e-06
0.000231282
2.85617e-06
0.000229764
2.71278e-06
0.00022832
2.59067e-06
0.000226949
2.46781e-06
0.000225644
2.35735e-06
0.000224397
2.25967e-06
0.000223205
2.16614e-06
0.000222066
2.07334e-06
0.000220974
1.9971e-06
0.000219926
1.91964e-06
0.00021892
1.84746e-06
0.000217951
1.78579e-06
0.000217018
1.71981e-06
0.000216119
1.66477e-06
0.000215253
1.60487e-06
0.000214416
1.55515e-06
0.000213607
1.50623e-06
0.000212824
1.46225e-06
0.000212067
1.41495e-06
0.000211333
1.37637e-06
0.000210622
1.33301e-06
0.000209932
1.29608e-06
0.000209263
1.25991e-06
0.000208612
1.22728e-06
0.000207981
1.1926e-06
0.000207367
1.16168e-06
0.00020677
1.13087e-06
0.000206189
1.10191e-06
0.000205623
1.07556e-06
0.000205071
1.04797e-06
0.000204534
1.02335e-06
0.000204011
9.98088e-07
0.0002035
9.75254e-07
0.000203001
9.52298e-07
0.000202515
9.30136e-07
0.00020204
9.1054e-07
0.000201576
8.89371e-07
0.000201122
8.70644e-07
0.000200679
8.50636e-07
0.000200246
8.33234e-07
0.000199822
8.14975e-07
0.000199408
7.98218e-07
0.000199002
7.81753e-07
0.000198605
7.66505e-07
0.000198216
7.50612e-07
0.000197835
7.35877e-07
0.000197462
7.21211e-07
0.000197097
7.07106e-07
0.000196739
6.93444e-07
0.000196388
6.79728e-07
0.000196044
6.67658e-07
0.000195706
6.54695e-07
0.000195375
6.43218e-07
0.00019505
6.30731e-07
0.000194731
6.19974e-07
0.000194419
6.08067e-07
0.000194111
5.97763e-07
0.00019381
5.86636e-07
0.000193514
5.76715e-07
0.000193223
5.66398e-07
0.000192938
5.57138e-07
0.000192657
5.47077e-07
0.000192382
5.38384e-07
0.000192111
5.2867e-07
0.000191844
5.20497e-07
0.000191583
5.11183e-07
0.000191325
5.03321e-07
0.000191073
4.94666e-07
0.000190824
4.86963e-07
0.000190579
4.78916e-07
0.000190338
4.71599e-07
0.000190102
4.63817e-07
0.000189869
4.56835e-07
0.000189639
4.49369e-07
0.000189414
4.42706e-07
0.000189192
4.3565e-07
0.000188973
4.29126e-07
0.000188758
4.22631e-07
0.000188546
4.16128e-07
0.000188337
4.10239e-07
0.000188132
4.03931e-07
0.000187929
3.98311e-07
0.00018773
3.92282e-07
0.000187533
3.86951e-07
0.000187339
3.81183e-07
0.000187148
3.76197e-07
0.00018696
3.70712e-07
0.000186775
3.65796e-07
0.000186592
3.60588e-07
0.000186411
3.5579e-07
0.000186233
3.50831e-07
0.000186058
3.46062e-07
0.000185885
3.40953e-07
0.000185715
3.36237e-07
0.000185547
3.3099e-07
0.000185382
3.26205e-07
0.00018522
3.21087e-07
0.000185059
3.16334e-07
0.000184902
3.11614e-07
0.000184746
3.07096e-07
0.000184593
3.0269e-07
0.000184442
2.98587e-07
0.000184292
2.95229e-07
0.000184144
2.92024e-07
0.000183998
2.89488e-07
0.000183852
2.87156e-07
0.000183708
2.85682e-07
0.000183564
2.84244e-07
0.000183421
2.83405e-07
0.000183279
2.82561e-07
0.000183137
2.8243e-07
0.000182995
2.82066e-07
0.000182853
2.82194e-07
0.000182711
2.82066e-07
0.00018257
2.82079e-07
0.000182429
2.81283e-07
0.000182289
2.81063e-07
0.000182149
2.8056e-07
0.000182009
2.80732e-07
0.000181869
2.80376e-07
0.000181731
2.80222e-07
0.000181593
2.78832e-07
0.000181456
2.76827e-07
0.000181321
2.73249e-07
0.000181187
2.70693e-07
0.000181056
2.67102e-07
0.000180926
2.63609e-07
0.000180798
2.58128e-07
0.000180674
2.53095e-07
0.000180551
2.47688e-07
0.000180432
2.43786e-07
0.000180314
2.39262e-07
0.000180197
2.36781e-07
0.000180082
2.33699e-07
0.00017997
2.3051e-07
0.000179859
2.25867e-07
0.00017975
2.2234e-07
0.000179643
2.17782e-07
0.000179539
2.13587e-07
0.000179436
2.08703e-07
0.000179336
2.04602e-07
0.000179237
2.01339e-07
0.00017914
1.96945e-07
0.000179046
1.92781e-07
0.000178952
1.9093e-07
0.000178861
1.86988e-07
0.000178771
1.84237e-07
0.000178682
1.81427e-07
0.000178595
1.77554e-07
0.00017851
1.73649e-07
0.000178427
1.69997e-07
0.000178344
1.66284e-07
0.000178264
1.63579e-07
0.000178185
1.6079e-07
0.000178107
1.6033e-07
0.00017803
1.55851e-07
0.000177954
1.55379e-07
0.000177878
1.53004e-07
0.000177804
1.53606e-07
0.00017773
1.48912e-07
0.000177656
1.52307e-07
0.000177584
1.45538e-07
0.00017751
1.53642e-07
0.00017744
1.39654e-07
0.000177366
1.56772e-07
0.000177299
1.28127e-07
0.000177228
1.5182e-07
0.000177169
1.08665e-07
0.000177107
1.32434e-07
0.00017708
2.42686e-08
1.85669e-07
0.000603276
0.000238747
0.000602015
0.000250047
0.000586363
0.000176148
0.000559306
0.000135419
0.000528243
0.000104976
0.000498894
8.22757e-05
0.000472625
6.54261e-05
0.000449712
5.31061e-05
0.000430062
4.36683e-05
0.000413275
3.65605e-05
0.000398904
3.0894e-05
0.000386519
2.63638e-05
0.00037577
2.28469e-05
0.000366359
1.98484e-05
0.000358059
1.74395e-05
0.00035068
1.55171e-05
0.000344091
1.39028e-05
0.000338166
1.25412e-05
0.000332802
1.14012e-05
0.000327928
1.03812e-05
0.000323473
9.53949e-06
0.000319385
8.79149e-06
0.000315614
8.14871e-06
0.000312129
7.55295e-06
0.000308895
7.0287e-06
0.000305876
6.59691e-06
0.000303058
6.18437e-06
0.000300413
5.83099e-06
0.000297933
5.48889e-06
0.000295595
5.19336e-06
0.000293388
4.92028e-06
0.000291299
4.67971e-06
0.000289321
4.44601e-06
0.000287443
4.23519e-06
0.000285656
4.04609e-06
0.000283953
3.86926e-06
0.000282329
3.69741e-06
0.000280777
3.54978e-06
0.000279292
3.40444e-06
0.00027787
3.26929e-06
0.000276504
3.15156e-06
0.000275194
3.03015e-06
0.000273933
2.92542e-06
0.000272721
2.81687e-06
0.000271553
2.72316e-06
0.000270427
2.63261e-06
0.000269339
2.54996e-06
0.000268289
2.46464e-06
0.000267274
2.3919e-06
0.000266292
2.31431e-06
0.000265342
2.24618e-06
0.000264422
2.18042e-06
0.000263529
2.12007e-06
0.000262664
2.05796e-06
0.000261824
2.00177e-06
0.000261008
1.94646e-06
0.000260216
1.89407e-06
0.000259445
1.84606e-06
0.000258696
1.79712e-06
0.000257967
1.75263e-06
0.000257257
1.70779e-06
0.000256566
1.66667e-06
0.000255892
1.62592e-06
0.000255236
1.58656e-06
0.000254595
1.55109e-06
0.000253971
1.51406e-06
0.000253361
1.48055e-06
0.000252766
1.44571e-06
0.000252184
1.41458e-06
0.000251616
1.38271e-06
0.000251062
1.35303e-06
0.000250519
1.32409e-06
0.000249989
1.29711e-06
0.00024947
1.26946e-06
0.000248962
1.2436e-06
0.000248465
1.21802e-06
0.000247979
1.19342e-06
0.000247503
1.1696e-06
0.000247037
1.14588e-06
0.00024658
1.12451e-06
0.000246132
1.1023e-06
0.000245693
1.08209e-06
0.000245263
1.06078e-06
0.000244841
1.04181e-06
0.000244428
1.02157e-06
0.000244022
1.00347e-06
0.000243624
9.84544e-07
0.000243234
9.67206e-07
0.000242851
9.49597e-07
0.000242474
9.33438e-07
0.000242105
9.16393e-07
0.000241742
9.01189e-07
0.000241386
8.84809e-07
0.000241036
8.70492e-07
0.000240692
8.54833e-07
0.000240355
8.41117e-07
0.000240023
8.2651e-07
0.000239696
8.13166e-07
0.000239376
7.99544e-07
0.000239061
7.86927e-07
0.000238751
7.73777e-07
0.000238446
7.61747e-07
0.000238146
7.49147e-07
0.000237851
7.37683e-07
0.000237561
7.25762e-07
0.000237275
7.1461e-07
0.000236994
7.03552e-07
0.000236718
6.9255e-07
0.000236446
6.82418e-07
0.000236178
6.7182e-07
0.000235914
6.62143e-07
0.000235654
6.52015e-07
0.000235398
6.42841e-07
0.000235146
6.33158e-07
0.000234898
6.24527e-07
0.000234653
6.1531e-07
0.000234412
6.06865e-07
0.000234175
5.98094e-07
0.000233941
5.89861e-07
0.00023371
5.81462e-07
0.000233483
5.73365e-07
0.000233259
5.64802e-07
0.000233038
5.56798e-07
0.000232821
5.48095e-07
0.000232607
5.40078e-07
0.000232397
5.31603e-07
0.000232189
5.237e-07
0.000231985
5.15848e-07
0.000231784
5.08382e-07
0.000231586
5.01098e-07
0.00023139
4.94338e-07
0.000231196
4.88613e-07
0.000231005
4.83282e-07
0.000230816
4.7886e-07
0.000230628
4.74856e-07
0.000230442
4.7202e-07
0.000230256
4.69373e-07
0.000230072
4.67531e-07
0.000229889
4.65782e-07
0.000229707
4.64948e-07
0.000229525
4.63914e-07
0.000229343
4.63445e-07
0.000229163
4.62668e-07
0.000228983
4.61912e-07
0.000228804
4.6025e-07
0.000228626
4.59233e-07
0.000228448
4.57791e-07
0.000228272
4.57193e-07
0.000228096
4.55973e-07
0.000227922
4.54674e-07
0.000227749
4.51767e-07
0.000227578
4.47873e-07
0.000227409
4.42178e-07
0.000227242
4.37554e-07
0.000227078
4.31564e-07
0.000226916
4.25538e-07
0.000226757
4.17063e-07
0.000226601
4.08809e-07
0.000226449
4.00104e-07
0.000226299
3.93347e-07
0.000226152
3.86188e-07
0.000226008
3.815e-07
0.000225865
3.76052e-07
0.000225726
3.70448e-07
0.000225588
3.63208e-07
0.000225453
3.57359e-07
0.000225321
3.50131e-07
0.000225191
3.43398e-07
0.000225064
3.35974e-07
0.000224939
3.2932e-07
0.000224817
3.23765e-07
0.000224697
3.16643e-07
0.00022458
3.10301e-07
0.000224464
3.06796e-07
0.00022435
3.00535e-07
0.000224239
2.95804e-07
0.000224129
2.91562e-07
0.000224021
2.85336e-07
0.000223915
2.7934e-07
0.000223812
2.7329e-07
0.00022371
2.68112e-07
0.000223611
2.63311e-07
0.000223512
2.59326e-07
0.000223415
2.5721e-07
0.00022332
2.51543e-07
0.000223226
2.4934e-07
0.000223132
2.4674e-07
0.00022304
2.45645e-07
0.000222948
2.40851e-07
0.000222858
2.42993e-07
0.000222767
2.35876e-07
0.000222677
2.43582e-07
0.000222589
2.2784e-07
0.0002225
2.46584e-07
0.000222416
2.12082e-07
0.000222328
2.39169e-07
0.000222252
1.85462e-07
0.000222175
2.09004e-07
0.000222129
7.02329e-08
2.59041e-07
0.000634308
0.00021684
0.000644051
0.000240303
0.000640937
0.000179262
0.000631425
0.000144931
0.000614914
0.000121486
0.000594927
0.000102263
0.000573636
8.67177e-05
0.000552232
7.451e-05
0.000531719
6.41821e-05
0.000512664
5.56155e-05
0.000495366
4.81917e-05
0.000479819
4.19111e-05
0.000465929
3.67366e-05
0.00045353
3.22479e-05
0.000442434
2.85347e-05
0.000432483
2.54688e-05
0.000423546
2.28397e-05
0.000415476
2.06114e-05
0.00040815
1.87273e-05
0.000401485
1.70464e-05
0.000395393
1.56316e-05
0.000389801
1.4383e-05
0.000384648
1.33022e-05
0.000379887
1.23138e-05
0.000375472
1.14431e-05
0.000371362
1.07073e-05
0.000367531
1.00158e-05
0.000363944
9.41748e-06
0.000360586
8.84697e-06
0.000357428
8.35102e-06
0.000354452
7.89633e-06
0.000351643
7.48918e-06
0.000348987
7.10133e-06
0.000346472
6.75076e-06
0.000344084
6.43347e-06
0.000341813
6.14088e-06
0.00033965
5.86018e-06
0.000337587
5.61262e-06
0.000335618
5.37341e-06
0.000333736
5.15144e-06
0.000331932
4.95559e-06
0.000330204
4.75789e-06
0.000328545
4.58445e-06
0.000326952
4.40984e-06
0.00032542
4.25541e-06
0.000323945
4.10738e-06
0.000322524
3.97157e-06
0.000321154
3.83467e-06
0.000319831
3.7149e-06
0.000318554
3.59113e-06
0.000317319
3.48065e-06
0.000316125
3.37464e-06
0.000314969
3.27644e-06
0.000313849
3.17754e-06
0.000312764
3.08714e-06
0.000311711
2.9989e-06
0.000310691
2.91496e-06
0.000309699
2.83769e-06
0.000308736
2.76025e-06
0.000307799
2.68908e-06
0.000306889
2.61815e-06
0.000306003
2.55252e-06
0.000305141
2.48808e-06
0.000304302
2.42585e-06
0.000303484
2.36909e-06
0.000302687
2.31109e-06
0.000301909
2.25791e-06
0.000301151
2.20357e-06
0.000300412
2.15421e-06
0.00029969
2.10443e-06
0.000298985
2.05769e-06
0.000298297
2.01231e-06
0.000297624
1.96981e-06
0.000296967
1.92676e-06
0.000296324
1.88629e-06
0.000295696
1.84643e-06
0.000295081
1.80809e-06
0.00029448
1.77101e-06
0.000293892
1.73428e-06
0.000293315
1.70069e-06
0.000292751
1.66648e-06
0.000292198
1.63485e-06
0.000291657
1.6021e-06
0.000291126
1.57242e-06
0.000290607
1.54142e-06
0.000290097
1.51319e-06
0.000289597
1.48421e-06
0.000289107
1.45725e-06
0.000288627
1.43023e-06
0.000288155
1.40512e-06
0.000287692
1.37911e-06
0.000287238
1.35546e-06
0.000286792
1.33056e-06
0.000286354
1.30827e-06
0.000285925
1.28452e-06
0.000285503
1.26324e-06
0.000285088
1.24102e-06
0.000284681
1.22042e-06
0.000284281
1.19967e-06
0.000283887
1.18024e-06
0.000283501
1.16025e-06
0.000283121
1.14173e-06
0.000282747
1.1226e-06
0.00028238
1.10498e-06
0.000282019
1.08687e-06
0.000281664
1.06979e-06
0.000281314
1.05292e-06
0.000280971
1.03619e-06
0.000280633
1.02062e-06
0.0002803
1.00457e-06
0.000279972
9.89701e-07
0.00027965
9.74368e-07
0.000279332
9.60265e-07
0.00027902
9.45613e-07
0.000278712
9.32303e-07
0.000278409
9.18345e-07
0.000278111
9.05374e-07
0.000277817
8.92078e-07
0.000277527
8.79462e-07
0.000277242
8.66697e-07
0.000276961
8.54367e-07
0.000276684
8.41466e-07
0.000276412
8.29308e-07
0.000276143
8.16315e-07
0.000275879
8.04233e-07
0.000275619
7.91608e-07
0.000275363
7.79791e-07
0.000275111
7.68052e-07
0.000274862
7.56913e-07
0.000274617
7.46074e-07
0.000274376
7.36005e-07
0.000274137
7.27271e-07
0.000273901
7.1919e-07
0.000273668
7.12302e-07
0.000273436
7.06078e-07
0.000273207
7.01324e-07
0.000272979
6.96927e-07
0.000272753
6.93572e-07
0.000272529
6.90426e-07
0.000272305
6.88375e-07
0.000272083
6.86168e-07
0.000271862
6.84577e-07
0.000271642
6.82632e-07
0.000271423
6.80546e-07
0.000271206
6.77466e-07
0.00027099
6.75123e-07
0.000270776
6.72174e-07
0.000270563
6.70164e-07
0.000270351
6.67358e-07
0.000270142
6.64226e-07
0.000269934
6.59167e-07
0.000269729
6.52765e-07
0.000269527
6.44311e-07
0.000269328
6.37027e-07
0.000269131
6.28047e-07
0.000268938
6.18905e-07
0.000268748
6.06843e-07
0.000268562
5.94793e-07
0.00026838
5.82149e-07
0.000268201
5.71868e-07
0.000268026
5.61332e-07
0.000267854
5.53755e-07
0.000267685
5.45307e-07
0.000267518
5.36746e-07
0.000267355
5.26342e-07
0.000267195
5.17674e-07
0.000267037
5.07341e-07
0.000266883
4.97688e-07
0.000266732
4.87216e-07
0.000266584
4.77556e-07
0.000266438
4.6919e-07
0.000266296
4.58903e-07
0.000266156
4.4998e-07
0.000266019
4.44337e-07
0.000265884
4.35393e-07
0.000265751
4.28319e-07
0.000265621
4.22163e-07
0.000265493
4.13213e-07
0.000265367
4.04868e-07
0.000265244
3.96092e-07
0.000265123
3.89143e-07
0.000265005
3.81897e-07
0.000264887
3.76526e-07
0.000264772
3.72179e-07
0.000264659
3.65158e-07
0.000264547
3.60809e-07
0.000264436
3.57889e-07
0.000264327
3.54653e-07
0.000264218
3.4979e-07
0.000264111
3.50209e-07
0.000264004
3.42961e-07
0.000263898
3.49566e-07
0.000263793
3.32648e-07
0.000263688
3.51754e-07
0.000263587
3.12661e-07
0.000263484
3.42006e-07
0.000263391
2.78782e-07
0.000263299
3.01218e-07
0.000263234
1.35054e-07
3.42538e-07
0.000662834
0.000195872
0.000676972
0.000226165
0.000678737
0.000177498
0.00067681
0.000146858
0.000670871
0.000127424
0.0006614
0.000111734
0.000649248
9.88688e-05
0.000634974
8.8784e-05
0.000619285
7.98707e-05
0.000602805
7.20957e-05
0.000586253
6.47437e-05
0.000570146
5.8018e-05
0.000554859
5.20232e-05
0.000540613
4.64936e-05
0.000527455
4.1693e-05
0.000515367
3.75572e-05
0.000504319
3.38869e-05
0.000494218
3.07131e-05
0.00048496
2.79846e-05
0.00047648
2.55264e-05
0.000468694
2.34182e-05
0.00046152
2.15568e-05
0.000454892
1.99296e-05
0.000448758
1.84481e-05
0.000443067
1.71343e-05
0.000437768
1.60067e-05
0.000432826
1.4957e-05
0.000428204
1.404e-05
0.000423877
1.31738e-05
0.000419811
1.24169e-05
0.000415983
1.1724e-05
0.000412374
1.10985e-05
0.000408966
1.05096e-05
0.00040574
9.97607e-06
0.000402683
9.49052e-06
0.000399778
9.04596e-06
0.000397015
8.62301e-06
0.000394384
8.2443e-06
0.000391875
7.88221e-06
0.00038948
7.54677e-06
0.000387187
7.24791e-06
0.000384995
6.95044e-06
0.000382892
6.68706e-06
0.000380875
6.42654e-06
0.000378938
6.19255e-06
0.000377076
5.96929e-06
0.000375284
5.76397e-06
0.000373558
5.56015e-06
0.000371895
5.37884e-06
0.00037029
5.19541e-06
0.000368741
5.03003e-06
0.000367244
4.87166e-06
0.000365796
4.72428e-06
0.000364395
4.57807e-06
0.000363039
4.4433e-06
0.000361726
4.31258e-06
0.000360453
4.18799e-06
0.000359217
4.07292e-06
0.000358019
3.95895e-06
0.000356854
3.85342e-06
0.000355723
3.74905e-06
0.000354624
3.65191e-06
0.000353555
3.55716e-06
0.000352515
3.46566e-06
0.000351503
3.38159e-06
0.000350517
3.2969e-06
0.000349556
3.21852e-06
0.00034862
3.13945e-06
0.000347708
3.06685e-06
0.000346818
2.99434e-06
0.00034595
2.9259e-06
0.000345102
2.85965e-06
0.000344275
2.7974e-06
0.000343466
2.73488e-06
0.000342677
2.67592e-06
0.000341905
2.61803e-06
0.000341151
2.56233e-06
0.000340413
2.50854e-06
0.000339692
2.45542e-06
0.000338987
2.40641e-06
0.000338296
2.35711e-06
0.00033762
2.31107e-06
0.000336958
2.26401e-06
0.000336309
2.22083e-06
0.000335674
2.1764e-06
0.000335052
2.13543e-06
0.000334442
2.09389e-06
0.000333845
2.05488e-06
0.000333259
2.01611e-06
0.000332684
1.97979e-06
0.000332121
1.94262e-06
0.000331568
1.90841e-06
0.000331025
1.87291e-06
0.000330493
1.84066e-06
0.000329971
1.80689e-06
0.000329458
1.77616e-06
0.000328954
1.7445e-06
0.00032846
1.71487e-06
0.000327974
1.68529e-06
0.000327497
1.65737e-06
0.000327028
1.62891e-06
0.000326568
1.60233e-06
0.000326115
1.57514e-06
0.00032567
1.54986e-06
0.000325233
1.52411e-06
0.000324803
1.49971e-06
0.00032438
1.47563e-06
0.000323965
1.45184e-06
0.000323556
1.42952e-06
0.000323154
1.40675e-06
0.000322758
1.38544e-06
0.000322369
1.36369e-06
0.000321985
1.34348e-06
0.000321608
1.3227e-06
0.000321237
1.30357e-06
0.000320872
1.28376e-06
0.000320512
1.2652e-06
0.000320158
1.24632e-06
0.000319809
1.22828e-06
0.000319465
1.21014e-06
0.000319127
1.1926e-06
0.000318794
1.1744e-06
0.000318466
1.15715e-06
0.000318144
1.13897e-06
0.000317826
1.12194e-06
0.000317513
1.1043e-06
0.000317205
1.08774e-06
0.000316902
1.0713e-06
0.000316603
1.05571e-06
0.000316309
1.04057e-06
0.000316018
1.02646e-06
0.000315731
1.01399e-06
0.000315448
1.00247e-06
0.000315168
9.92436e-07
0.000314891
9.83333e-07
0.000314616
9.76e-07
0.000314344
9.69223e-07
0.000314074
9.63727e-07
0.000313805
9.58568e-07
0.000313539
9.54667e-07
0.000313275
9.50675e-07
0.000313012
9.47321e-07
0.000312751
9.43574e-07
0.000312492
9.39502e-07
0.000312235
9.34403e-07
0.00031198
9.30085e-07
0.000311727
9.24958e-07
0.000311477
9.20787e-07
0.000311228
9.15631e-07
0.000310983
9.09892e-07
0.00031074
9.01975e-07
0.0003105
8.92382e-07
0.000310264
8.80581e-07
0.000310031
8.69945e-07
0.000309802
8.57326e-07
0.000309576
8.44431e-07
0.000309355
8.28294e-07
0.000309138
8.11832e-07
0.000308925
7.94598e-07
0.000308717
7.80064e-07
0.000308513
7.65519e-07
0.000308313
7.54286e-07
0.000308116
7.42168e-07
0.000307923
7.30046e-07
0.000307733
7.16022e-07
0.000307547
7.03928e-07
0.000307364
6.90013e-07
0.000307185
6.76995e-07
0.000307009
6.63109e-07
0.000306837
6.49924e-07
0.000306668
6.3819e-07
0.000306502
6.24256e-07
0.00030634
6.12458e-07
0.00030618
6.04085e-07
0.000306024
5.92059e-07
0.00030587
5.82246e-07
0.000305718
5.73801e-07
0.00030557
5.61688e-07
0.000305424
5.50709e-07
0.000305281
5.38845e-07
0.000305141
5.29918e-07
0.000305003
5.19838e-07
0.000304866
5.1283e-07
0.000304733
5.05646e-07
0.000304601
4.97115e-07
0.000304472
4.90225e-07
0.000304343
4.8673e-07
0.000304217
4.8095e-07
0.000304091
4.75981e-07
0.000303966
4.74305e-07
0.000303842
4.66972e-07
0.00030372
4.71888e-07
0.000303599
4.54141e-07
0.000303478
4.72572e-07
0.000303361
4.29832e-07
0.000303243
4.60359e-07
0.000303133
3.88416e-07
0.000303025
4.09454e-07
0.000302941
2.18965e-07
4.38393e-07
0.000692313
0.000176307
0.000707615
0.000210863
0.00071207
0.000173042
0.000712616
0.000146312
0.000711318
0.000128722
0.000708072
0.00011498
0.000702735
0.000104206
0.000695583
9.59363e-05
0.000686733
8.87205e-05
0.000676232
8.25969e-05
0.000664374
7.66012e-05
0.000651507
7.08851e-05
0.000638052
6.54783e-05
0.000624473
6.00726e-05
0.000611115
5.50512e-05
0.000598224
5.04483e-05
0.000585987
4.61244e-05
0.000574476
4.22244e-05
0.0005637
3.87597e-05
0.000553665
3.55616e-05
0.000544336
3.27472e-05
0.000535662
3.0231e-05
0.000527591
2.80006e-05
0.000520079
2.59605e-05
0.000513082
2.41311e-05
0.000506547
2.25412e-05
0.000500438
2.1066e-05
0.000494714
1.97645e-05
0.000489347
1.85406e-05
0.000484301
1.74629e-05
0.00047955
1.64752e-05
0.000475067
1.55809e-05
0.000470834
1.47427e-05
0.000466829
1.3981e-05
0.000463034
1.32856e-05
0.00045943